REMARK  6 active torsions:
REMARK  status: ('A' for Active; 'I' for Inactive)
REMARK    1  A    between atoms: C1_1  and  O20_21 
REMARK    2  A    between atoms: C6_6  and  C7_7 
REMARK    3  A    between atoms: C7_7  and  N8_8 
REMARK       I    between atoms: N8_8  and  C9_10 
REMARK    4  A    between atoms: C9_10  and  C11_12 
REMARK    5  A    between atoms: O20_21  and  C21_22 
REMARK    6  A    between atoms: C21_22  and  C23_24 
ROOT
HETATM    1  C1  TX3 A 174       3.274  13.689  28.551  1.00 28.52     0.105 A 
HETATM    2  C2  TX3 A 174       4.444  14.543  28.837  1.00 30.10     0.046 A 
HETATM    3  C3  TX3 A 174       5.711  13.960  28.746  1.00 30.35     0.041 A 
HETATM    4  C4  TX3 A 174       5.852  12.612  28.382  1.00 29.60     0.013 A 
HETATM    5  C5  TX3 A 174       4.762  11.788  28.101  1.00 30.12     0.030 A 
HETATM    6  C6  TX3 A 174       3.463  12.274  28.175  1.00 29.03    -0.004 A 
HETATM    7 BR18 TX3 A 174       4.162  16.375  29.286  1.00 36.83    -0.048 Br
HETATM    8 BR19 TX3 A 174       7.564  11.836  28.239  1.00 28.07    -0.051 Br
ENDROOT
BRANCH   6   9
HETATM    9  C7  TX3 A 174       2.261  11.408  27.874  1.00 29.64     0.164 C 
BRANCH   9  10
HETATM   10  N8  TX3 A 174       2.553  10.511  26.761  1.00 26.44    -0.352 N 
HETATM   11  C9  TX3 A 174       2.827   9.227  26.979  1.00 27.23     0.253 C 
HETATM   12  O10 TX3 A 174       2.936   8.778  28.120  1.00 26.19    -0.268 OA
ATOM     13  H8  TX3 A 174       2.547  10.871  25.807  1.00  0.00     0.163 HD
BRANCH  11  14
HETATM   14  C11 TX3 A 174       3.032   8.304  25.815  1.00 27.69     0.053 A 
HETATM   15  C12 TX3 A 174       2.016   7.455  25.383  1.00 28.79     0.019 A 
HETATM   16  C13 TX3 A 174       2.231   6.597  24.292  1.00 29.49     0.001 A 
HETATM   17  C14 TX3 A 174       3.458   6.575  23.626  1.00 29.01     0.002 A 
HETATM   18  C15 TX3 A 174       4.516   7.410  24.017  1.00 29.22     0.025 A 
HETATM   19  C16 TX3 A 174       4.337   8.284  25.100  1.00 29.27     0.049 A 
HETATM   20 CL17 TX3 A 174       5.663   9.376  25.634  1.00 27.15    -0.083 Cl
ENDBRANCH  11  14
ENDBRANCH   9  10
ENDBRANCH   6   9
BRANCH   1  21
HETATM   21  O20 TX3 A 174       2.014  14.194  28.615  1.00 26.97    -0.273 OA
BRANCH  21  22
HETATM   22  C21 TX3 A 174       1.384  14.497  29.867  1.00 24.41     0.299 C 
HETATM   23  O22 TX3 A 174       2.007  14.361  30.911  1.00 23.22    -0.259 OA
BRANCH  22  24
HETATM   24  C23 TX3 A 174      -0.030  14.981  29.793  1.00 24.17     0.045 A 
HETATM   25  C24 TX3 A 174      -0.922  14.384  28.898  1.00 22.90     0.018 A 
HETATM   26  C25 TX3 A 174      -2.236  14.849  28.826  1.00 23.58     0.001 A 
HETATM   27  C26 TX3 A 174      -2.669  15.903  29.635  1.00 23.96     0.001 A 
HETATM   28  C27 TX3 A 174      -1.810  16.528  30.537  1.00 24.15     0.008 A 
HETATM   29  C28 TX3 A 174      -0.487  16.105  30.640  1.00 23.91    -0.046 A 
HETATM   30  C29 TX3 A 174       0.467  16.768  31.606  1.00 24.59     0.049 C 
ENDBRANCH  22  24
ENDBRANCH  21  22
ENDBRANCH   1  21
TORSDOF 6
