MODEL 1
REMARK VINA RESULT:     -13.8      0.000      0.000
REMARK  6 active torsions:
REMARK  status: ('A' for Active; 'I' for Inactive)
REMARK    1  A    between atoms: C1_1  and  O20_21 
REMARK    2  A    between atoms: C6_6  and  C7_7 
REMARK    3  A    between atoms: C7_7  and  N8_8 
REMARK       I    between atoms: N8_8  and  C9_10 
REMARK    4  A    between atoms: C9_10  and  C11_12 
REMARK    5  A    between atoms: O20_21  and  C21_22 
REMARK    6  A    between atoms: C21_22  and  C23_24 
ROOT
HETATM    1  C1  TX3 A 174       2.803  13.727  28.572  1.00 28.52     0.105 A 
HETATM    2  C2  TX3 A 174       3.895  14.655  28.928  1.00 30.10     0.046 A 
HETATM    3  C3  TX3 A 174       5.200  14.154  28.925  1.00 30.35     0.041 A 
HETATM    4  C4  TX3 A 174       5.450  12.817  28.581  1.00 29.60     0.013 A 
HETATM    5  C5  TX3 A 174       4.436  11.924  28.235  1.00 30.12     0.030 A 
HETATM    6  C6  TX3 A 174       3.107  12.326  28.219  1.00 29.03    -0.004 A 
HETATM    7 BR18 TX3 A 174       3.467  16.466  29.345  1.00 36.83    -0.048 Br
HETATM    8 BR19 TX3 A 174       7.214  12.152  28.557  1.00 28.07    -0.051 Br
ENDROOT
BRANCH   6   9
HETATM    9  C7  TX3 A 174       1.985  11.383  27.846  1.00 29.64     0.164 C 
BRANCH   9  10
HETATM   10  N8  TX3 A 174       2.404  10.509  26.756  1.00 26.44    -0.352 N 
HETATM   11  C9  TX3 A 174       2.757   9.248  26.996  1.00 27.23     0.253 C 
HETATM   12  O10 TX3 A 174       2.832   8.809  28.143  1.00 26.19    -0.268 OA
ATOM     13  H8  TX3 A 174       2.427  10.867  25.801  1.00  0.00     0.163 HD
BRANCH  11  14
HETATM   14  C11 TX3 A 174       3.094   8.341  25.850  1.00 27.69     0.053 A 
HETATM   15  C12 TX3 A 174       2.155   7.448  25.339  1.00 28.79     0.019 A 
HETATM   16  C13 TX3 A 174       2.494   6.607  24.267  1.00 29.49     0.001 A 
HETATM   17  C14 TX3 A 174       3.769   6.644  23.699  1.00 29.01     0.002 A 
HETATM   18  C15 TX3 A 174       4.753   7.525  24.172  1.00 29.22     0.025 A 
HETATM   19  C16 TX3 A 174       4.450   8.385  25.239  1.00 29.27     0.049 A 
HETATM   20 CL17 TX3 A 174       5.679   9.534  25.876  1.00 27.15    -0.083 Cl
ENDBRANCH  11  14
ENDBRANCH   9  10
ENDBRANCH   6   9
BRANCH   1  21
HETATM   21  O20 TX3 A 174       1.512  14.150  28.549  1.00 26.97    -0.273 OA
BRANCH  21  22
HETATM   22  C21 TX3 A 174       0.694  14.146  29.727  1.00 24.41     0.299 C 
HETATM   23  O22 TX3 A 174       1.079  13.565  30.733  1.00 23.22    -0.259 OA
BRANCH  22  24
HETATM   24  C23 TX3 A 174      -0.603  14.884  29.631  1.00 24.17     0.045 A 
HETATM   25  C24 TX3 A 174      -1.582  14.454  28.731  1.00 22.90     0.018 A 
HETATM   26  C25 TX3 A 174      -2.785  15.155  28.639  1.00 23.58     0.001 A 
HETATM   27  C26 TX3 A 174      -3.022  16.281  29.432  1.00 23.96     0.001 A 
HETATM   28  C27 TX3 A 174      -2.070  16.746  30.338  1.00 24.15     0.008 A 
HETATM   29  C28 TX3 A 174      -0.851  16.084  30.461  1.00 23.91    -0.046 A 
HETATM   30  C29 TX3 A 174       0.201  16.569  31.432  1.00 24.59     0.049 C 
ENDBRANCH  22  24
ENDBRANCH  21  22
ENDBRANCH   1  21
TORSDOF 6
ENDMDL
MODEL 2
REMARK VINA RESULT:     -12.5      1.125      1.943
REMARK  6 active torsions:
REMARK  status: ('A' for Active; 'I' for Inactive)
REMARK    1  A    between atoms: C1_1  and  O20_21 
REMARK    2  A    between atoms: C6_6  and  C7_7 
REMARK    3  A    between atoms: C7_7  and  N8_8 
REMARK       I    between atoms: N8_8  and  C9_10 
REMARK    4  A    between atoms: C9_10  and  C11_12 
REMARK    5  A    between atoms: O20_21  and  C21_22 
REMARK    6  A    between atoms: C21_22  and  C23_24 
ROOT
HETATM    1  C1  TX3 A 174       3.054  14.210  28.811  1.00 28.52     0.105 A 
HETATM    2  C2  TX3 A 174       4.038  15.204  29.285  1.00 30.10     0.046 A 
HETATM    3  C3  TX3 A 174       5.380  14.819  29.327  1.00 30.35     0.041 A 
HETATM    4  C4  TX3 A 174       5.768  13.533  28.919  1.00 29.60     0.013 A 
HETATM    5  C5  TX3 A 174       4.857  12.580  28.462  1.00 30.12     0.030 A 
HETATM    6  C6  TX3 A 174       3.500  12.866  28.394  1.00 29.03    -0.004 A 
HETATM    7 BR18 TX3 A 174       3.428  16.941  29.784  1.00 36.83    -0.048 Br
HETATM    8 BR19 TX3 A 174       7.583  13.026  28.957  1.00 28.07    -0.051 Br
ENDROOT
BRANCH   6   9
HETATM    9  C7  TX3 A 174       2.488  11.857  27.900  1.00 29.64     0.164 C 
BRANCH   9  10
HETATM   10  N8  TX3 A 174       3.089  10.997  26.886  1.00 26.44    -0.352 N 
HETATM   11  C9  TX3 A 174       3.297   9.705  27.130  1.00 27.23     0.253 C 
HETATM   12  O10 TX3 A 174       3.080   9.218  28.239  1.00 26.19    -0.268 OA
ATOM     13  H8  TX3 A 174       3.351  11.389  25.982  1.00  0.00     0.163 HD
BRANCH  11  14
HETATM   14  C11 TX3 A 174       3.828   8.821  26.042  1.00 27.69     0.053 A 
HETATM   15  C12 TX3 A 174       5.131   8.965  25.570  1.00 28.79     0.019 A 
HETATM   16  C13 TX3 A 174       5.607   8.127  24.549  1.00 29.49     0.001 A 
HETATM   17  C14 TX3 A 174       4.791   7.144  23.987  1.00 29.01     0.002 A 
HETATM   18  C15 TX3 A 174       3.471   6.953  24.424  1.00 29.22     0.025 A 
HETATM   19  C16 TX3 A 174       2.962   7.768  25.446  1.00 29.27     0.049 A 
HETATM   20 CL17 TX3 A 174       1.278   7.557  26.043  1.00 27.15    -0.083 Cl
ENDBRANCH  11  14
ENDBRANCH   9  10
ENDBRANCH   6   9
BRANCH   1  21
HETATM   21  O20 TX3 A 174       1.733  14.521  28.739  1.00 26.97    -0.273 OA
BRANCH  21  22
HETATM   22  C21 TX3 A 174       0.862  14.387  29.871  1.00 24.41     0.299 C 
HETATM   23  O22 TX3 A 174       1.234  13.763  30.855  1.00 23.22    -0.259 OA
BRANCH  22  24
HETATM   24  C23 TX3 A 174      -0.474  15.051  29.757  1.00 24.17     0.045 A 
HETATM   25  C24 TX3 A 174      -0.758  16.177  30.535  1.00 22.90     0.018 A 
HETATM   26  C25 TX3 A 174      -2.011  16.784  30.432  1.00 23.58     0.001 A 
HETATM   27  C26 TX3 A 174      -2.982  16.280  29.563  1.00 23.96     0.001 A 
HETATM   28  C27 TX3 A 174      -2.740  15.158  28.773  1.00 24.15     0.008 A 
HETATM   29  C28 TX3 A 174      -1.508  14.512  28.846  1.00 23.91    -0.046 A 
HETATM   30  C29 TX3 A 174      -1.221  13.290  28.005  1.00 24.59     0.049 C 
ENDBRANCH  22  24
ENDBRANCH  21  22
ENDBRANCH   1  21
TORSDOF 6
ENDMDL
