REMARK  9 active torsions:
REMARK  status: ('A' for Active; 'I' for Inactive)
REMARK    1  A    between atoms: C_2  and  C_3 
REMARK    2  A    between atoms: C_2  and  N_11 
REMARK    3  A    between atoms: C_3  and  O_4 
REMARK    4  A    between atoms: O_4  and  C_5 
REMARK    5  A    between atoms: N_11  and  C_12 
REMARK    6  A    between atoms: C_12  and  C_14 
REMARK    7  A    between atoms: C_14  and  O_15 
REMARK    8  A    between atoms: C_14  and  C_16 
REMARK    9  A    between atoms: C_19  and  O_20 
ROOT
HETATM    1  C   UNL     1      -0.840  -0.509  -0.671  1.00  0.00     0.250 C 
HETATM    2  C   UNL     1      -0.748  -0.314  -2.194  1.00  0.00     0.045 C 
ENDROOT
BRANCH   1   3
HETATM    3  N   UNL     1      -0.053  -1.730  -0.352  1.00  0.00     0.097 N 
HETATM    4  H   UNL     1       0.820  -1.705  -0.891  1.00  0.00     0.317 HD
BRANCH   3   5
HETATM    5  C   UNL     1       0.340  -1.844   1.069  1.00  0.00     0.241 C 
HETATM    6  C   UNL     1       0.800  -3.291   1.281  1.00  0.00     0.045 C 
BRANCH   5   7
HETATM    7  C   UNL     1       1.467  -0.862   1.474  1.00  0.00     0.211 C 
BRANCH   7   8
HETATM    8  O   UNL     1       2.565  -1.007   0.569  1.00  0.00    -0.349 OA
BRANCH   8   9
HETATM    9  C   UNL     1       3.643  -0.188   0.759  1.00  0.00     0.068 A 
HETATM   10  C   UNL     1       4.669  -0.349  -0.176  1.00  0.00     0.037 A 
HETATM   11  C   UNL     1       5.829   0.424  -0.101  1.00  0.00     0.003 A 
HETATM   12  C   UNL     1       5.970   1.365   0.915  1.00  0.00     0.000 A 
HETATM   13  C   UNL     1       4.952   1.530   1.853  1.00  0.00     0.003 A 
HETATM   14  C   UNL     1       3.791   0.755   1.777  1.00  0.00     0.037 A 
ENDBRANCH   8   9
ENDBRANCH   7   8
ENDBRANCH   5   7
ENDBRANCH   3   5
ENDBRANCH   1   3
BRANCH   1  15
HETATM   15  C   UNL     1      -2.320  -0.678  -0.199  1.00  0.00     0.184 C 
BRANCH  15  16
HETATM   16  O   UNL     1      -2.831  -1.915  -0.713  1.00  0.00    -0.389 OA
HETATM   17  H   UNL     1      -2.055  -2.513  -0.694  1.00  0.00     0.210 HD
ENDBRANCH  15  16
BRANCH  15  18
HETATM   18  C   UNL     1      -3.222   0.489  -0.551  1.00  0.00    -0.027 A 
HETATM   19  C   UNL     1      -3.055   1.720   0.106  1.00  0.00     0.012 A 
HETATM   20  C   UNL     1      -3.866   2.812  -0.210  1.00  0.00     0.037 A 
HETATM   21  C   UNL     1      -4.849   2.681  -1.182  1.00  0.00     0.065 A 
HETATM   22  C   UNL     1      -5.038   1.474  -1.844  1.00  0.00     0.037 A 
HETATM   23  C   UNL     1      -4.225   0.382  -1.528  1.00  0.00     0.012 A 
BRANCH  21  24
HETATM   24  O   UNL     1      -5.619   3.772  -1.459  1.00  0.00    -0.361 OA
HETATM   25  H   UNL     1      -6.264   3.525  -2.141  1.00  0.00     0.217 HD
ENDBRANCH  21  24
ENDBRANCH  15  18
ENDBRANCH   1  15
TORSDOF 9
