REMARK  7 active torsions:
REMARK  status: ('A' for Active; 'I' for Inactive)
REMARK    1  A    between atoms: C_2  and  C_3 
REMARK    2  A    between atoms: C_2  and  C_20 
REMARK    3  A    between atoms: C_3  and  C_4 
REMARK    4  A    between atoms: C_4  and  C_5 
REMARK    5  A    between atoms: C_5  and  N_6 
REMARK    6  A    between atoms: C_9  and  O_10 
REMARK    7  A    between atoms: C_9  and  C_11 
ROOT
HETATM    1  N   UNL     1      -0.489   0.569  -0.005  1.00  0.00     0.088 N 
HETATM    2  C   UNL     1      -1.166   0.717   1.295  1.00  0.00     0.276 C 
HETATM    3  C   UNL     1      -2.686   0.784   1.133  1.00  0.00     0.073 C 
HETATM    4  C   UNL     1      -3.241  -0.445   0.396  1.00  0.00     0.088 C 
HETATM    5  C   UNL     1      -2.441  -0.654  -0.901  1.00  0.00     0.073 C 
HETATM    6  C   UNL     1      -0.931  -0.681  -0.647  1.00  0.00     0.276 C 
ENDROOT
BRANCH   1   7
HETATM    7  C   UNL     1       0.974   0.580   0.196  1.00  0.00     0.272 C 
BRANCH   7   8
HETATM    8  C   UNL     1       1.744   0.767  -1.121  1.00  0.00     0.038 C 
BRANCH   8   9
HETATM    9  C   UNL     1       3.243   0.987  -0.891  1.00  0.00     0.085 C 
BRANCH   9  10
HETATM   10  C   UNL     1       3.974  -0.268  -0.440  1.00  0.00     0.159 C 
HETATM   11  O   UNL     1       3.424  -1.365  -0.381  1.00  0.00    -0.292 OA
BRANCH  10  12
HETATM   12  C   UNL     1       5.418  -0.159  -0.064  1.00  0.00     0.010 A 
HETATM   13  C   UNL     1       6.059  -1.297   0.454  1.00  0.00     0.018 A 
HETATM   14  C   UNL     1       7.406  -1.246   0.820  1.00  0.00     0.043 A 
HETATM   15  C   UNL     1       8.111  -0.059   0.667  1.00  0.00     0.116 A 
HETATM   16  F   UNL     1       9.402  -0.008   1.017  1.00  0.00    -0.206 F 
HETATM   17  C   UNL     1       7.495   1.077   0.154  1.00  0.00     0.043 A 
HETATM   18  C   UNL     1       6.146   1.030  -0.214  1.00  0.00     0.018 A 
ENDBRANCH  10  12
ENDBRANCH   9  10
ENDBRANCH   8   9
ENDBRANCH   7   8
ENDBRANCH   1   7
BRANCH   4  19
HETATM   19  O   UNL     1      -3.019  -1.604   1.219  1.00  0.00    -0.385 OA
HETATM   20  H   UNL     1      -3.640  -2.291   0.918  1.00  0.00     0.211 HD
ENDBRANCH   4  19
BRANCH   4  21
HETATM   21  C   UNL     1      -4.758  -0.320   0.209  1.00  0.00    -0.024 A 
HETATM   22  C   UNL     1      -5.371  -0.182  -1.047  1.00  0.00     0.011 A 
HETATM   23  C   UNL     1      -6.762  -0.072  -1.164  1.00  0.00     0.020 A 
HETATM   24  C   UNL     1      -7.561  -0.101  -0.025  1.00  0.00     0.011 A 
HETATM   25 BR   UNL     1      -9.438   0.047  -0.189  1.00  0.00    -0.051 Br
HETATM   26  C   UNL     1      -6.984  -0.238   1.231  1.00  0.00     0.020 A 
HETATM   27  C   UNL     1      -5.595  -0.347   1.345  1.00  0.00     0.011 A 
ENDBRANCH   4  21
TORSDOF 7
