MODEL 1
REMARK VINA RESULT:     -10.9      0.000      0.000
REMARK  7 active torsions:
REMARK  status: ('A' for Active; 'I' for Inactive)
REMARK    1  A    between atoms: C_2  and  C_3 
REMARK    2  A    between atoms: C_2  and  C_20 
REMARK    3  A    between atoms: C_3  and  C_4 
REMARK    4  A    between atoms: C_4  and  C_5 
REMARK    5  A    between atoms: C_5  and  N_6 
REMARK    6  A    between atoms: C_9  and  O_10 
REMARK    7  A    between atoms: C_9  and  C_11 
ROOT
HETATM    1  N   UNL     1       3.913  13.498  28.320  1.00  0.00     0.088 N 
HETATM    2  C   UNL     1       2.620  12.794  28.370  1.00  0.00     0.276 C 
HETATM    3  C   UNL     1       2.610  11.569  27.454  1.00  0.00     0.073 C 
HETATM    4  C   UNL     1       3.747  10.590  27.790  1.00  0.00     0.088 C 
HETATM    5  C   UNL     1       5.073  11.366  27.851  1.00  0.00     0.073 C 
HETATM    6  C   UNL     1       4.982  12.589  28.769  1.00  0.00     0.276 C 
ENDROOT
BRANCH   1   7
HETATM    7  C   UNL     1       3.850  14.708  29.163  1.00  0.00     0.272 C 
BRANCH   7   8
HETATM    8  C   UNL     1       2.528  15.474  28.990  1.00  0.00     0.038 C 
BRANCH   8   9
HETATM    9  C   UNL     1       1.822  15.724  30.326  1.00  0.00     0.085 C 
BRANCH   9  10
HETATM   10  C   UNL     1       0.594  14.852  30.532  1.00  0.00     0.159 C 
HETATM   11  O   UNL     1       0.626  13.811  31.184  1.00  0.00    -0.292 OA
BRANCH  10  12
HETATM   12  C   UNL     1      -0.702  15.287  29.924  1.00  0.00     0.010 A 
HETATM   13  C   UNL     1      -1.126  14.660  28.740  1.00  0.00     0.018 A 
HETATM   14  C   UNL     1      -2.328  15.031  28.133  1.00  0.00     0.043 A 
HETATM   15  C   UNL     1      -3.106  16.027  28.711  1.00  0.00     0.116 A 
HETATM   16  F   UNL     1      -4.259  16.383  28.131  1.00  0.00    -0.206 F 
HETATM   17  C   UNL     1      -2.705  16.657  29.883  1.00  0.00     0.043 A 
HETATM   18  C   UNL     1      -1.502  16.288  30.494  1.00  0.00     0.018 A 
ENDBRANCH  10  12
ENDBRANCH   9  10
ENDBRANCH   8   9
ENDBRANCH   7   8
ENDBRANCH   1   7
BRANCH   4  19
HETATM   19  O   UNL     1       3.510  10.056  29.105  1.00  0.00    -0.385 OA
HETATM   20  H   UNL     1       2.905  10.670  29.557  1.00  0.00     0.211 HD
ENDBRANCH   4  19
BRANCH   4  21
HETATM   21  C   UNL     1       3.736   9.401  26.822  1.00  0.00    -0.024 A 
HETATM   22  C   UNL     1       2.697   8.457  26.772  1.00  0.00     0.011 A 
HETATM   23  C   UNL     1       2.734   7.388  25.868  1.00  0.00     0.020 A 
HETATM   24  C   UNL     1       3.811   7.249  24.998  1.00  0.00     0.011 A 
HETATM   25 BR   UNL     1       3.856   5.805  23.780  1.00  0.00    -0.051 Br
HETATM   26  C   UNL     1       4.853   8.168  25.022  1.00  0.00     0.020 A 
HETATM   27  C   UNL     1       4.814   9.233  25.926  1.00  0.00     0.011 A 
ENDBRANCH   4  21
TORSDOF 7
ENDMDL
MODEL 2
REMARK VINA RESULT:     -10.5      3.765      5.768
REMARK  7 active torsions:
REMARK  status: ('A' for Active; 'I' for Inactive)
REMARK    1  A    between atoms: C_2  and  C_3 
REMARK    2  A    between atoms: C_2  and  C_20 
REMARK    3  A    between atoms: C_3  and  C_4 
REMARK    4  A    between atoms: C_4  and  C_5 
REMARK    5  A    between atoms: C_5  and  N_6 
REMARK    6  A    between atoms: C_9  and  O_10 
REMARK    7  A    between atoms: C_9  and  C_11 
ROOT
HETATM    1  N   UNL     1       2.525  13.282  28.397  1.00  0.00     0.088 N 
HETATM    2  C   UNL     1       1.451  12.274  28.435  1.00  0.00     0.276 C 
HETATM    3  C   UNL     1       1.736  11.113  27.480  1.00  0.00     0.073 C 
HETATM    4  C   UNL     1       3.087  10.443  27.775  1.00  0.00     0.088 C 
HETATM    5  C   UNL     1       4.176  11.526  27.851  1.00  0.00     0.073 C 
HETATM    6  C   UNL     1       3.795  12.659  28.808  1.00  0.00     0.276 C 
ENDROOT
BRANCH   1   7
HETATM    7  C   UNL     1       2.172  14.412  29.279  1.00  0.00     0.272 C 
BRANCH   7   8
HETATM    8  C   UNL     1       2.621  15.765  28.704  1.00  0.00     0.038 C 
BRANCH   8   9
HETATM    9  C   UNL     1       3.554  16.521  29.656  1.00  0.00     0.085 C 
BRANCH   9  10
HETATM   10  C   UNL     1       4.948  16.736  29.088  1.00  0.00     0.159 C 
HETATM   11  O   UNL     1       5.145  17.343  28.038  1.00  0.00    -0.292 OA
BRANCH  10  12
HETATM   12  C   UNL     1       6.120  16.194  29.844  1.00  0.00     0.010 A 
HETATM   13  C   UNL     1       6.800  17.053  30.723  1.00  0.00     0.018 A 
HETATM   14  C   UNL     1       7.901  16.595  31.451  1.00  0.00     0.043 A 
HETATM   15  C   UNL     1       8.320  15.280  31.301  1.00  0.00     0.116 A 
HETATM   16  F   UNL     1       9.374  14.838  31.998  1.00  0.00    -0.206 F 
HETATM   17  C   UNL     1       7.658  14.413  30.437  1.00  0.00     0.043 A 
HETATM   18  C   UNL     1       6.556  14.868  29.706  1.00  0.00     0.018 A 
ENDBRANCH  10  12
ENDBRANCH   9  10
ENDBRANCH   8   9
ENDBRANCH   7   8
ENDBRANCH   1   7
BRANCH   4  19
HETATM   19  O   UNL     1       3.013   9.829  29.074  1.00  0.00    -0.385 OA
HETATM   20  H   UNL     1       3.639   9.083  29.073  1.00  0.00     0.211 HD
ENDBRANCH   4  19
BRANCH   4  21
HETATM   21  C   UNL     1       3.360   9.318  26.769  1.00  0.00    -0.024 A 
HETATM   22  C   UNL     1       4.528   9.245  25.992  1.00  0.00     0.011 A 
HETATM   23  C   UNL     1       4.729   8.195  25.088  1.00  0.00     0.020 A 
HETATM   24  C   UNL     1       3.766   7.201  24.949  1.00  0.00     0.011 A 
HETATM   25 BR   UNL     1       4.044   5.786  23.727  1.00  0.00    -0.051 Br
HETATM   26  C   UNL     1       2.601   7.245  25.705  1.00  0.00     0.020 A 
HETATM   27  C   UNL     1       2.402   8.294  26.607  1.00  0.00     0.011 A 
ENDBRANCH   4  21
TORSDOF 7
ENDMDL
MODEL 3
REMARK VINA RESULT:      -9.7      5.784      9.457
REMARK  7 active torsions:
REMARK  status: ('A' for Active; 'I' for Inactive)
REMARK    1  A    between atoms: C_2  and  C_3 
REMARK    2  A    between atoms: C_2  and  C_20 
REMARK    3  A    between atoms: C_3  and  C_4 
REMARK    4  A    between atoms: C_4  and  C_5 
REMARK    5  A    between atoms: C_5  and  N_6 
REMARK    6  A    between atoms: C_9  and  O_10 
REMARK    7  A    between atoms: C_9  and  C_11 
ROOT
HETATM    1  N   UNL     1       4.748  13.054  28.981  1.00  0.00     0.088 N 
HETATM    2  C   UNL     1       4.448  14.494  29.047  1.00  0.00     0.276 C 
HETATM    3  C   UNL     1       5.322  15.203  30.084  1.00  0.00     0.073 C 
HETATM    4  C   UNL     1       6.820  14.998  29.811  1.00  0.00     0.088 C 
HETATM    5  C   UNL     1       7.093  13.495  29.625  1.00  0.00     0.073 C 
HETATM    6  C   UNL     1       6.156  12.865  28.591  1.00  0.00     0.276 C 
ENDROOT
BRANCH   1   7
HETATM    7  C   UNL     1       3.834  12.403  28.021  1.00  0.00     0.272 C 
BRANCH   7   8
HETATM    8  C   UNL     1       3.683  10.896  28.286  1.00  0.00     0.038 C 
BRANCH   8   9
HETATM    9  C   UNL     1       3.871  10.061  27.015  1.00  0.00     0.085 C 
BRANCH   9  10
HETATM   10  C   UNL     1       2.676   9.178  26.692  1.00  0.00     0.159 C 
HETATM   11  O   UNL     1       1.555   9.396  27.145  1.00  0.00    -0.292 OA
BRANCH  10  12
HETATM   12  C   UNL     1       2.876   8.008  25.781  1.00  0.00     0.010 A 
HETATM   13  C   UNL     1       3.907   7.101  26.079  1.00  0.00     0.018 A 
HETATM   14  C   UNL     1       4.134   5.993  25.260  1.00  0.00     0.043 A 
HETATM   15  C   UNL     1       3.331   5.792  24.145  1.00  0.00     0.116 A 
HETATM   16  F   UNL     1       3.547   4.731  23.358  1.00  0.00    -0.206 F 
HETATM   17  C   UNL     1       2.304   6.677  23.834  1.00  0.00     0.043 A 
HETATM   18  C   UNL     1       2.073   7.788  24.653  1.00  0.00     0.018 A 
ENDBRANCH  10  12
ENDBRANCH   9  10
ENDBRANCH   8   9
ENDBRANCH   7   8
ENDBRANCH   1   7
BRANCH   4  19
HETATM   19  O   UNL     1       7.146  15.642  28.567  1.00  0.00    -0.385 OA
HETATM   20  H   UNL     1       6.310  15.963  28.184  1.00  0.00     0.211 HD
ENDBRANCH   4  19
BRANCH   4  21
HETATM   21  C   UNL     1       7.663  15.680  30.896  1.00  0.00    -0.024 A 
HETATM   22  C   UNL     1       8.688  15.028  31.600  1.00  0.00     0.011 A 
HETATM   23  C   UNL     1       9.429  15.696  32.582  1.00  0.00     0.020 A 
HETATM   24  C   UNL     1       9.157  17.030  32.872  1.00  0.00     0.011 A 
HETATM   25 BR   UNL     1      10.161  17.927  34.198  1.00  0.00    -0.051 Br
HETATM   26  C   UNL     1       8.149  17.702  32.192  1.00  0.00     0.020 A 
HETATM   27  C   UNL     1       7.411  17.032  31.213  1.00  0.00     0.011 A 
ENDBRANCH   4  21
TORSDOF 7
ENDMDL
MODEL 4
REMARK VINA RESULT:      -9.7      3.590      5.470
REMARK  7 active torsions:
REMARK  status: ('A' for Active; 'I' for Inactive)
REMARK    1  A    between atoms: C_2  and  C_3 
REMARK    2  A    between atoms: C_2  and  C_20 
REMARK    3  A    between atoms: C_3  and  C_4 
REMARK    4  A    between atoms: C_4  and  C_5 
REMARK    5  A    between atoms: C_5  and  N_6 
REMARK    6  A    between atoms: C_9  and  O_10 
REMARK    7  A    between atoms: C_9  and  C_11 
ROOT
HETATM    1  N   UNL     1       1.954  12.979  29.252  1.00  0.00     0.088 N 
HETATM    2  C   UNL     1       1.292  12.967  27.936  1.00  0.00     0.276 C 
HETATM    3  C   UNL     1       1.883  11.895  27.019  1.00  0.00     0.073 C 
HETATM    4  C   UNL     1       1.811  10.495  27.649  1.00  0.00     0.088 C 
HETATM    5  C   UNL     1       2.399  10.555  29.069  1.00  0.00     0.073 C 
HETATM    6  C   UNL     1       1.769  11.672  29.905  1.00  0.00     0.276 C 
ENDROOT
BRANCH   1   7
HETATM    7  C   UNL     1       1.400  14.073  30.074  1.00  0.00     0.272 C 
BRANCH   7   8
HETATM    8  C   UNL     1       2.107  15.414  29.818  1.00  0.00     0.038 C 
BRANCH   8   9
HETATM    9  C   UNL     1       3.210  15.296  28.761  1.00  0.00     0.085 C 
BRANCH   9  10
HETATM   10  C   UNL     1       4.609  15.479  29.328  1.00  0.00     0.159 C 
HETATM   11  O   UNL     1       4.934  16.474  29.972  1.00  0.00    -0.292 OA
BRANCH  10  12
HETATM   12  C   UNL     1       5.622  14.402  29.097  1.00  0.00     0.010 A 
HETATM   13  C   UNL     1       5.176  13.165  28.600  1.00  0.00     0.018 A 
HETATM   14  C   UNL     1       6.082  12.128  28.368  1.00  0.00     0.043 A 
HETATM   15  C   UNL     1       7.431  12.327  28.632  1.00  0.00     0.116 A 
HETATM   16  F   UNL     1       8.301  11.334  28.410  1.00  0.00    -0.206 F 
HETATM   17  C   UNL     1       7.892  13.544  29.121  1.00  0.00     0.043 A 
HETATM   18  C   UNL     1       6.987  14.586  29.355  1.00  0.00     0.018 A 
ENDBRANCH  10  12
ENDBRANCH   9  10
ENDBRANCH   8   9
ENDBRANCH   7   8
ENDBRANCH   1   7
BRANCH   4  19
HETATM   19  O   UNL     1       0.426  10.129  27.781  1.00  0.00    -0.385 OA
HETATM   20  H   UNL     1       0.091  10.566  28.585  1.00  0.00     0.211 HD
ENDBRANCH   4  19
BRANCH   4  21
HETATM   21  C   UNL     1       2.456   9.455  26.724  1.00  0.00    -0.024 A 
HETATM   22  C   UNL     1       1.780   8.319  26.252  1.00  0.00     0.011 A 
HETATM   23  C   UNL     1       2.414   7.399  25.407  1.00  0.00     0.020 A 
HETATM   24  C   UNL     1       3.735   7.605  25.021  1.00  0.00     0.011 A 
HETATM   25 BR   UNL     1       4.585   6.360  23.881  1.00  0.00    -0.051 Br
HETATM   26  C   UNL     1       4.430   8.720  25.470  1.00  0.00     0.020 A 
HETATM   27  C   UNL     1       3.794   9.637  26.313  1.00  0.00     0.011 A 
ENDBRANCH   4  21
TORSDOF 7
ENDMDL
MODEL 5
REMARK VINA RESULT:      -9.4      4.381      6.418
REMARK  7 active torsions:
REMARK  status: ('A' for Active; 'I' for Inactive)
REMARK    1  A    between atoms: C_2  and  C_3 
REMARK    2  A    between atoms: C_2  and  C_20 
REMARK    3  A    between atoms: C_3  and  C_4 
REMARK    4  A    between atoms: C_4  and  C_5 
REMARK    5  A    between atoms: C_5  and  N_6 
REMARK    6  A    between atoms: C_9  and  O_10 
REMARK    7  A    between atoms: C_9  and  C_11 
ROOT
HETATM    1  N   UNL     1       3.523  13.546  28.377  1.00  0.00     0.088 N 
HETATM    2  C   UNL     1       2.286  12.747  28.388  1.00  0.00     0.276 C 
HETATM    3  C   UNL     1       2.389  11.539  27.453  1.00  0.00     0.073 C 
HETATM    4  C   UNL     1       3.588  10.644  27.800  1.00  0.00     0.088 C 
HETATM    5  C   UNL     1       4.851  11.516  27.902  1.00  0.00     0.073 C 
HETATM    6  C   UNL     1       4.648  12.713  28.836  1.00  0.00     0.276 C 
ENDROOT
BRANCH   1   7
HETATM    7  C   UNL     1       3.351  14.735  29.236  1.00  0.00     0.272 C 
BRANCH   7   8
HETATM    8  C   UNL     1       4.201  15.926  28.766  1.00  0.00     0.038 C 
BRANCH   8   9
HETATM    9  C   UNL     1       5.103  16.470  29.878  1.00  0.00     0.085 C 
BRANCH   9  10
HETATM   10  C   UNL     1       6.501  15.870  29.867  1.00  0.00     0.159 C 
HETATM   11  O   UNL     1       6.867  15.069  29.011  1.00  0.00    -0.292 OA
BRANCH  10  12
HETATM   12  C   UNL     1       7.464  16.281  30.936  1.00  0.00     0.010 A 
HETATM   13  C   UNL     1       8.434  15.353  31.351  1.00  0.00     0.018 A 
HETATM   14  C   UNL     1       9.355  15.689  32.346  1.00  0.00     0.043 A 
HETATM   15  C   UNL     1       9.307  16.951  32.924  1.00  0.00     0.116 A 
HETATM   16  F   UNL     1      10.189  17.275  33.877  1.00  0.00    -0.206 F 
HETATM   17  C   UNL     1       8.356  17.884  32.525  1.00  0.00     0.043 A 
HETATM   18  C   UNL     1       7.432  17.552  31.529  1.00  0.00     0.018 A 
ENDBRANCH  10  12
ENDBRANCH   9  10
ENDBRANCH   8   9
ENDBRANCH   7   8
ENDBRANCH   1   7
BRANCH   4  19
HETATM   19  O   UNL     1       3.365  10.072  29.101  1.00  0.00    -0.385 OA
HETATM   20  H   UNL     1       3.136   9.135  28.965  1.00  0.00     0.211 HD
ENDBRANCH   4  19
BRANCH   4  21
HETATM   21  C   UNL     1       3.688   9.473  26.814  1.00  0.00    -0.024 A 
HETATM   22  C   UNL     1       4.756   9.309  25.917  1.00  0.00     0.011 A 
HETATM   23  C   UNL     1       4.800   8.221  25.037  1.00  0.00     0.020 A 
HETATM   24  C   UNL     1       3.776   7.279  25.042  1.00  0.00     0.011 A 
HETATM   25 BR   UNL     1       3.840   5.813  23.852  1.00  0.00    -0.051 Br
HETATM   26  C   UNL     1       2.706   7.413  25.919  1.00  0.00     0.020 A 
HETATM   27  C   UNL     1       2.665   8.501  26.796  1.00  0.00     0.011 A 
ENDBRANCH   4  21
TORSDOF 7
ENDMDL
MODEL 6
REMARK VINA RESULT:      -9.4      1.071      1.608
REMARK  7 active torsions:
REMARK  status: ('A' for Active; 'I' for Inactive)
REMARK    1  A    between atoms: C_2  and  C_3 
REMARK    2  A    between atoms: C_2  and  C_20 
REMARK    3  A    between atoms: C_3  and  C_4 
REMARK    4  A    between atoms: C_4  and  C_5 
REMARK    5  A    between atoms: C_5  and  N_6 
REMARK    6  A    between atoms: C_9  and  O_10 
REMARK    7  A    between atoms: C_9  and  C_11 
ROOT
HETATM    1  N   UNL     1       4.461  13.372  28.503  1.00  0.00     0.088 N 
HETATM    2  C   UNL     1       3.111  12.786  28.573  1.00  0.00     0.276 C 
HETATM    3  C   UNL     1       2.949  11.629  27.585  1.00  0.00     0.073 C 
HETATM    4  C   UNL     1       4.002  10.532  27.804  1.00  0.00     0.088 C 
HETATM    5  C   UNL     1       5.397  11.180  27.848  1.00  0.00     0.073 C 
HETATM    6  C   UNL     1       5.459  12.343  28.842  1.00  0.00     0.276 C 
ENDROOT
BRANCH   1   7
HETATM    7  C   UNL     1       4.547  14.526  29.421  1.00  0.00     0.272 C 
BRANCH   7   8
HETATM    8  C   UNL     1       4.428  15.869  28.684  1.00  0.00     0.038 C 
BRANCH   8   9
HETATM    9  C   UNL     1       2.972  16.326  28.541  1.00  0.00     0.085 C 
BRANCH   9  10
HETATM   10  C   UNL     1       2.174  16.209  29.831  1.00  0.00     0.159 C 
HETATM   11  O   UNL     1       2.685  16.365  30.937  1.00  0.00    -0.292 OA
BRANCH  10  12
HETATM   12  C   UNL     1       0.713  15.900  29.743  1.00  0.00     0.010 A 
HETATM   13  C   UNL     1       0.270  15.069  28.700  1.00  0.00     0.018 A 
HETATM   14  C   UNL     1      -1.085  14.752  28.574  1.00  0.00     0.043 A 
HETATM   15  C   UNL     1      -1.994  15.263  29.492  1.00  0.00     0.116 A 
HETATM   16  F   UNL     1      -3.292  14.960  29.373  1.00  0.00    -0.206 F 
HETATM   17  C   UNL     1      -1.574  16.085  30.532  1.00  0.00     0.043 A 
HETATM   18  C   UNL     1      -0.218  16.405  30.661  1.00  0.00     0.018 A 
ENDBRANCH  10  12
ENDBRANCH   9  10
ENDBRANCH   8   9
ENDBRANCH   7   8
ENDBRANCH   1   7
BRANCH   4  19
HETATM   19  O   UNL     1       3.774   9.937  29.094  1.00  0.00    -0.385 OA
HETATM   20  H   UNL     1       3.048   9.296  28.987  1.00  0.00     0.211 HD
ENDBRANCH   4  19
BRANCH   4  21
HETATM   21  C   UNL     1       3.839   9.415  26.766  1.00  0.00    -0.024 A 
HETATM   22  C   UNL     1       4.830   9.085  25.827  1.00  0.00     0.011 A 
HETATM   23  C   UNL     1       4.631   8.054  24.900  1.00  0.00     0.020 A 
HETATM   24  C   UNL     1       3.439   7.336  24.901  1.00  0.00     0.011 A 
HETATM   25 BR   UNL     1       3.178   5.946  23.648  1.00  0.00    -0.051 Br
HETATM   26  C   UNL     1       2.442   7.638  25.819  1.00  0.00     0.020 A 
HETATM   27  C   UNL     1       2.642   8.668  26.743  1.00  0.00     0.011 A 
ENDBRANCH   4  21
TORSDOF 7
ENDMDL
MODEL 7
REMARK VINA RESULT:      -9.1      1.934      2.570
REMARK  7 active torsions:
REMARK  status: ('A' for Active; 'I' for Inactive)
REMARK    1  A    between atoms: C_2  and  C_3 
REMARK    2  A    between atoms: C_2  and  C_20 
REMARK    3  A    between atoms: C_3  and  C_4 
REMARK    4  A    between atoms: C_4  and  C_5 
REMARK    5  A    between atoms: C_5  and  N_6 
REMARK    6  A    between atoms: C_9  and  O_10 
REMARK    7  A    between atoms: C_9  and  C_11 
ROOT
HETATM    1  N   UNL     1       5.449  13.186  28.362  1.00  0.00     0.088 N 
HETATM    2  C   UNL     1       4.024  12.914  28.618  1.00  0.00     0.276 C 
HETATM    3  C   UNL     1       3.471  11.859  27.658  1.00  0.00     0.073 C 
HETATM    4  C   UNL     1       4.269  10.547  27.723  1.00  0.00     0.088 C 
HETATM    5  C   UNL     1       5.766  10.864  27.574  1.00  0.00     0.073 C 
HETATM    6  C   UNL     1       6.225  11.948  28.554  1.00  0.00     0.276 C 
ENDROOT
BRANCH   1   7
HETATM    7  C   UNL     1       5.918  14.257  29.263  1.00  0.00     0.272 C 
BRANCH   7   8
HETATM    8  C   UNL     1       4.758  15.083  29.843  1.00  0.00     0.038 C 
BRANCH   8   9
HETATM    9  C   UNL     1       4.379  16.264  28.943  1.00  0.00     0.085 C 
BRANCH   9  10
HETATM   10  C   UNL     1       2.988  16.141  28.341  1.00  0.00     0.159 C 
HETATM   11  O   UNL     1       2.796  16.103  27.129  1.00  0.00    -0.292 OA
BRANCH  10  12
HETATM   12  C   UNL     1       1.814  16.054  29.265  1.00  0.00     0.010 A 
HETATM   13  C   UNL     1       1.809  16.863  30.414  1.00  0.00     0.018 A 
HETATM   14  C   UNL     1       0.736  16.818  31.307  1.00  0.00     0.043 A 
HETATM   15  C   UNL     1      -0.331  15.967  31.050  1.00  0.00     0.116 A 
HETATM   16  F   UNL     1      -1.361  15.923  31.904  1.00  0.00    -0.206 F 
HETATM   17  C   UNL     1      -0.346  15.162  29.917  1.00  0.00     0.043 A 
HETATM   18  C   UNL     1       0.726  15.203  29.020  1.00  0.00     0.018 A 
ENDBRANCH  10  12
ENDBRANCH   9  10
ENDBRANCH   8   9
ENDBRANCH   7   8
ENDBRANCH   1   7
BRANCH   4  19
HETATM   19  O   UNL     1       4.088   9.973  29.030  1.00  0.00    -0.385 OA
HETATM   20  H   UNL     1       4.216  10.689  29.677  1.00  0.00     0.211 HD
ENDBRANCH   4  19
BRANCH   4  21
HETATM   21  C   UNL     1       3.717   9.532  26.714  1.00  0.00    -0.024 A 
HETATM   22  C   UNL     1       2.428   8.982  26.801  1.00  0.00     0.011 A 
HETATM   23  C   UNL     1       1.971   8.058  25.853  1.00  0.00     0.020 A 
HETATM   24  C   UNL     1       2.798   7.673  24.802  1.00  0.00     0.011 A 
HETATM   25 BR   UNL     1       2.177   6.426  23.525  1.00  0.00    -0.051 Br
HETATM   26  C   UNL     1       4.078   8.200  24.689  1.00  0.00     0.020 A 
HETATM   27  C   UNL     1       4.532   9.122  25.637  1.00  0.00     0.011 A 
ENDBRANCH   4  21
TORSDOF 7
ENDMDL
MODEL 8
REMARK VINA RESULT:      -8.4      1.899      2.780
REMARK  7 active torsions:
REMARK  status: ('A' for Active; 'I' for Inactive)
REMARK    1  A    between atoms: C_2  and  C_3 
REMARK    2  A    between atoms: C_2  and  C_20 
REMARK    3  A    between atoms: C_3  and  C_4 
REMARK    4  A    between atoms: C_4  and  C_5 
REMARK    5  A    between atoms: C_5  and  N_6 
REMARK    6  A    between atoms: C_9  and  O_10 
REMARK    7  A    between atoms: C_9  and  C_11 
ROOT
HETATM    1  N   UNL     1       4.034  12.718  28.323  1.00  0.00     0.088 N 
HETATM    2  C   UNL     1       2.713  12.098  28.120  1.00  0.00     0.276 C 
HETATM    3  C   UNL     1       2.769  10.986  27.071  1.00  0.00     0.073 C 
HETATM    4  C   UNL     1       3.800   9.905  27.432  1.00  0.00     0.088 C 
HETATM    5  C   UNL     1       5.142  10.582  27.758  1.00  0.00     0.073 C 
HETATM    6  C   UNL     1       4.986  11.697  28.795  1.00  0.00     0.276 C 
ENDROOT
BRANCH   1   7
HETATM    7  C   UNL     1       3.915  13.828  29.289  1.00  0.00     0.272 C 
BRANCH   7   8
HETATM    8  C   UNL     1       5.190  14.684  29.357  1.00  0.00     0.038 C 
BRANCH   8   9
HETATM    9  C   UNL     1       4.882  16.185  29.369  1.00  0.00     0.085 C 
BRANCH   9  10
HETATM   10  C   UNL     1       3.621  16.547  28.601  1.00  0.00     0.159 C 
HETATM   11  O   UNL     1       3.654  17.092  27.500  1.00  0.00    -0.292 OA
BRANCH  10  12
HETATM   12  C   UNL     1       2.294  16.218  29.208  1.00  0.00     0.010 A 
HETATM   13  C   UNL     1       2.055  16.606  30.538  1.00  0.00     0.018 A 
HETATM   14  C   UNL     1       0.832  16.322  31.150  1.00  0.00     0.043 A 
HETATM   15  C   UNL     1      -0.151  15.651  30.433  1.00  0.00     0.116 A 
HETATM   16  F   UNL     1      -1.324  15.378  31.017  1.00  0.00    -0.206 F 
HETATM   17  C   UNL     1       0.065  15.261  29.116  1.00  0.00     0.043 A 
HETATM   18  C   UNL     1       1.289  15.545  28.499  1.00  0.00     0.018 A 
ENDBRANCH  10  12
ENDBRANCH   9  10
ENDBRANCH   8   9
ENDBRANCH   7   8
ENDBRANCH   1   7
BRANCH   4  19
HETATM   19  O   UNL     1       3.359   9.243  28.631  1.00  0.00    -0.385 OA
HETATM   20  H   UNL     1       4.029   9.419  29.316  1.00  0.00     0.211 HD
ENDBRANCH   4  19
BRANCH   4  21
HETATM   21  C   UNL     1       3.863   8.834  26.335  1.00  0.00    -0.024 A 
HETATM   22  C   UNL     1       4.901   8.757  25.393  1.00  0.00     0.011 A 
HETATM   23  C   UNL     1       4.913   7.759  24.411  1.00  0.00     0.020 A 
HETATM   24  C   UNL     1       3.886   6.821  24.359  1.00  0.00     0.011 A 
HETATM   25 BR   UNL     1       3.907   5.476  23.032  1.00  0.00    -0.051 Br
HETATM   26  C   UNL     1       2.845   6.871  25.278  1.00  0.00     0.020 A 
HETATM   27  C   UNL     1       2.836   7.869  26.257  1.00  0.00     0.011 A 
ENDBRANCH   4  21
TORSDOF 7
ENDMDL
MODEL 9
REMARK VINA RESULT:      -8.1      4.088      5.863
REMARK  7 active torsions:
REMARK  status: ('A' for Active; 'I' for Inactive)
REMARK    1  A    between atoms: C_2  and  C_3 
REMARK    2  A    between atoms: C_2  and  C_20 
REMARK    3  A    between atoms: C_3  and  C_4 
REMARK    4  A    between atoms: C_4  and  C_5 
REMARK    5  A    between atoms: C_5  and  N_6 
REMARK    6  A    between atoms: C_9  and  O_10 
REMARK    7  A    between atoms: C_9  and  C_11 
ROOT
HETATM    1  N   UNL     1       2.081  12.033  28.794  1.00  0.00     0.088 N 
HETATM    2  C   UNL     1       1.861  13.323  29.471  1.00  0.00     0.276 C 
HETATM    3  C   UNL     1       3.161  13.883  30.050  1.00  0.00     0.073 C 
HETATM    4  C   UNL     1       4.249  14.040  28.976  1.00  0.00     0.088 C 
HETATM    5  C   UNL     1       4.380  12.718  28.199  1.00  0.00     0.073 C 
HETATM    6  C   UNL     1       3.027  12.220  27.681  1.00  0.00     0.276 C 
ENDROOT
BRANCH   1   7
HETATM    7  C   UNL     1       0.789  11.500  28.315  1.00  0.00     0.272 C 
BRANCH   7   8
HETATM    8  C   UNL     1      -0.084  12.583  27.661  1.00  0.00     0.038 C 
BRANCH   8   9
HETATM    9  C   UNL     1      -1.409  12.787  28.404  1.00  0.00     0.085 C 
BRANCH   9  10
HETATM   10  C   UNL     1      -1.919  14.219  28.345  1.00  0.00     0.159 C 
HETATM   11  O   UNL     1      -2.649  14.620  27.442  1.00  0.00    -0.292 OA
BRANCH  10  12
HETATM   12  C   UNL     1      -1.520  15.166  29.432  1.00  0.00     0.010 A 
HETATM   13  C   UNL     1      -0.373  14.869  30.187  1.00  0.00     0.018 A 
HETATM   14  C   UNL     1       0.039  15.723  31.213  1.00  0.00     0.043 A 
HETATM   15  C   UNL     1      -0.693  16.872  31.482  1.00  0.00     0.116 A 
HETATM   16  F   UNL     1      -0.299  17.691  32.465  1.00  0.00    -0.206 F 
HETATM   17  C   UNL     1      -1.830  17.184  30.745  1.00  0.00     0.043 A 
HETATM   18  C   UNL     1      -2.246  16.332  29.716  1.00  0.00     0.018 A 
ENDBRANCH  10  12
ENDBRANCH   9  10
ENDBRANCH   8   9
ENDBRANCH   7   8
ENDBRANCH   1   7
BRANCH   4  19
HETATM   19  O   UNL     1       3.816  15.039  28.036  1.00  0.00    -0.385 OA
HETATM   20  H   UNL     1       3.779  14.612  27.161  1.00  0.00     0.211 HD
ENDBRANCH   4  19
BRANCH   4  21
HETATM   21  C   UNL     1       5.551  14.556  29.600  1.00  0.00    -0.024 A 
HETATM   22  C   UNL     1       5.800  15.915  29.851  1.00  0.00     0.011 A 
HETATM   23  C   UNL     1       7.006  16.335  30.424  1.00  0.00     0.020 A 
HETATM   24  C   UNL     1       7.981  15.400  30.758  1.00  0.00     0.011 A 
HETATM   25 BR   UNL     1       9.608  15.973  31.532  1.00  0.00    -0.051 Br
HETATM   26  C   UNL     1       7.764  14.049  30.523  1.00  0.00     0.020 A 
HETATM   27  C   UNL     1       6.559  13.632  29.950  1.00  0.00     0.011 A 
ENDBRANCH   4  21
TORSDOF 7
ENDMDL
