MODEL 1
REMARK VINA RESULT:      -9.5      0.000      0.000
REMARK  9 active torsions:
REMARK  status: ('A' for Active; 'I' for Inactive)
REMARK    1  A    between atoms: C_2  and  C_3 
REMARK    2  A    between atoms: C_2  and  N_11 
REMARK    3  A    between atoms: C_3  and  O_4 
REMARK    4  A    between atoms: O_4  and  C_5 
REMARK    5  A    between atoms: N_11  and  C_12 
REMARK    6  A    between atoms: C_12  and  C_14 
REMARK    7  A    between atoms: C_14  and  O_15 
REMARK    8  A    between atoms: C_14  and  C_16 
REMARK    9  A    between atoms: C_19  and  O_20 
ROOT
HETATM    1  C   UNL     1       3.375   9.907  27.255  1.00  0.00     0.250 C 
HETATM    2  C   UNL     1       3.051   9.697  28.743  1.00  0.00     0.045 C 
ENDROOT
BRANCH   1   3
HETATM    3  N   UNL     1       3.471  11.377  27.046  1.00  0.00     0.097 N 
HETATM    4  H   UNL     1       2.787  11.649  26.331  1.00  0.00     0.317 HD
BRANCH   3   5
HETATM    5  C   UNL     1       3.158  12.182  28.247  1.00  0.00     0.241 C 
HETATM    6  C   UNL     1       4.385  13.061  28.516  1.00  0.00     0.045 C 
BRANCH   5   7
HETATM    7  C   UNL     1       1.896  13.064  28.082  1.00  0.00     0.211 C 
BRANCH   7   8
HETATM    8  O   UNL     1       2.214  14.411  28.444  1.00  0.00    -0.349 OA
BRANCH   8   9
HETATM    9  C   UNL     1       1.362  15.043  29.307  1.00  0.00     0.068 A 
HETATM   10  C   UNL     1       0.017  14.690  29.160  1.00  0.00     0.037 A 
HETATM   11  C   UNL     1      -0.961  15.259  29.977  1.00  0.00     0.003 A 
HETATM   12  C   UNL     1      -0.599  16.189  30.948  1.00  0.00     0.000 A 
HETATM   13  C   UNL     1       0.740  16.547  31.099  1.00  0.00     0.003 A 
HETATM   14  C   UNL     1       1.719  15.977  30.280  1.00  0.00     0.037 A 
ENDBRANCH   8   9
ENDBRANCH   7   8
ENDBRANCH   5   7
ENDBRANCH   3   5
ENDBRANCH   1   3
BRANCH   1  15
HETATM   15  C   UNL     1       2.272   9.298  26.331  1.00  0.00     0.184 C 
BRANCH  15  16
HETATM   16  O   UNL     1       1.099   9.046  27.116  1.00  0.00    -0.389 OA
HETATM   17  H   UNL     1       0.790   9.942  27.366  1.00  0.00     0.210 HD
ENDBRANCH  15  16
BRANCH  15  18
HETATM   18  C   UNL     1       2.711   8.062  25.570  1.00  0.00    -0.027 A 
HETATM   19  C   UNL     1       1.997   7.657  24.430  1.00  0.00     0.012 A 
HETATM   20  C   UNL     1       2.390   6.529  23.706  1.00  0.00     0.037 A 
HETATM   21  C   UNL     1       3.497   5.798  24.118  1.00  0.00     0.065 A 
HETATM   22  C   UNL     1       4.218   6.175  25.244  1.00  0.00     0.037 A 
HETATM   23  C   UNL     1       3.825   7.304  25.967  1.00  0.00     0.012 A 
BRANCH  21  24
HETATM   24  O   UNL     1       3.845   4.704  23.383  1.00  0.00    -0.361 OA
HETATM   25  H   UNL     1       4.813   4.681  23.310  1.00  0.00     0.217 HD
ENDBRANCH  21  24
ENDBRANCH  15  18
ENDBRANCH   1  15
TORSDOF 9
ENDMDL
MODEL 2
REMARK VINA RESULT:      -9.4      1.528      9.199
REMARK  9 active torsions:
REMARK  status: ('A' for Active; 'I' for Inactive)
REMARK    1  A    between atoms: C_2  and  C_3 
REMARK    2  A    between atoms: C_2  and  N_11 
REMARK    3  A    between atoms: C_3  and  O_4 
REMARK    4  A    between atoms: O_4  and  C_5 
REMARK    5  A    between atoms: N_11  and  C_12 
REMARK    6  A    between atoms: C_12  and  C_14 
REMARK    7  A    between atoms: C_14  and  O_15 
REMARK    8  A    between atoms: C_14  and  C_16 
REMARK    9  A    between atoms: C_19  and  O_20 
ROOT
HETATM    1  C   UNL     1       2.865  13.451  28.617  1.00  0.00     0.250 C 
HETATM    2  C   UNL     1       4.320  13.878  28.874  1.00  0.00     0.045 C 
ENDROOT
BRANCH   1   3
HETATM    3  N   UNL     1       2.910  12.405  27.561  1.00  0.00     0.097 N 
HETATM    4  H   UNL     1       3.874  12.331  27.217  1.00  0.00     0.317 HD
BRANCH   3   5
HETATM    5  C   UNL     1       2.531  11.054  28.029  1.00  0.00     0.241 C 
HETATM    6  C   UNL     1       1.007  10.957  27.896  1.00  0.00     0.045 C 
BRANCH   5   7
HETATM    7  C   UNL     1       3.209   9.916  27.228  1.00  0.00     0.211 C 
BRANCH   7   8
HETATM    8  O   UNL     1       2.268   8.859  27.024  1.00  0.00    -0.349 OA
BRANCH   8   9
HETATM    9  C   UNL     1       2.558   7.943  26.050  1.00  0.00     0.068 A 
HETATM   10  C   UNL     1       3.764   7.262  26.232  1.00  0.00     0.037 A 
HETATM   11  C   UNL     1       4.184   6.298  25.314  1.00  0.00     0.003 A 
HETATM   12  C   UNL     1       3.396   6.011  24.202  1.00  0.00     0.000 A 
HETATM   13  C   UNL     1       2.193   6.688  24.012  1.00  0.00     0.003 A 
HETATM   14  C   UNL     1       1.774   7.653  24.933  1.00  0.00     0.037 A 
ENDBRANCH   8   9
ENDBRANCH   7   8
ENDBRANCH   5   7
ENDBRANCH   3   5
ENDBRANCH   1   3
BRANCH   1  15
HETATM   15  C   UNL     1       1.984  14.655  28.152  1.00  0.00     0.184 C 
BRANCH  15  16
HETATM   16  O   UNL     1       2.825  15.623  27.511  1.00  0.00    -0.389 OA
HETATM   17  H   UNL     1       3.457  15.883  28.213  1.00  0.00     0.210 HD
ENDBRANCH  15  16
BRANCH  15  18
HETATM   18  C   UNL     1       1.153  15.280  29.256  1.00  0.00    -0.027 A 
HETATM   19  C   UNL     1       1.775  16.087  30.224  1.00  0.00     0.012 A 
HETATM   20  C   UNL     1       1.028  16.682  31.242  1.00  0.00     0.037 A 
HETATM   21  C   UNL     1      -0.344  16.475  31.301  1.00  0.00     0.065 A 
HETATM   22  C   UNL     1      -0.984  15.679  30.359  1.00  0.00     0.037 A 
HETATM   23  C   UNL     1      -0.235  15.084  29.339  1.00  0.00     0.012 A 
BRANCH  21  24
HETATM   24  O   UNL     1      -1.035  17.075  32.312  1.00  0.00    -0.361 OA
HETATM   25  H   UNL     1      -1.703  17.659  31.920  1.00  0.00     0.217 HD
ENDBRANCH  21  24
ENDBRANCH  15  18
ENDBRANCH   1  15
TORSDOF 9
ENDMDL
MODEL 3
REMARK VINA RESULT:      -9.2      1.566      2.152
REMARK  9 active torsions:
REMARK  status: ('A' for Active; 'I' for Inactive)
REMARK    1  A    between atoms: C_2  and  C_3 
REMARK    2  A    between atoms: C_2  and  N_11 
REMARK    3  A    between atoms: C_3  and  O_4 
REMARK    4  A    between atoms: O_4  and  C_5 
REMARK    5  A    between atoms: N_11  and  C_12 
REMARK    6  A    between atoms: C_12  and  C_14 
REMARK    7  A    between atoms: C_14  and  O_15 
REMARK    8  A    between atoms: C_14  and  C_16 
REMARK    9  A    between atoms: C_19  and  O_20 
ROOT
HETATM    1  C   UNL     1       3.582  11.400  27.346  1.00  0.00     0.250 C 
HETATM    2  C   UNL     1       4.555  11.661  28.508  1.00  0.00     0.045 C 
ENDROOT
BRANCH   1   3
HETATM    3  N   UNL     1       2.582  12.501  27.374  1.00  0.00     0.097 N 
HETATM    4  H   UNL     1       1.650  12.098  27.226  1.00  0.00     0.317 HD
BRANCH   3   5
HETATM    5  C   UNL     1       2.520  13.229  28.659  1.00  0.00     0.241 C 
HETATM    6  C   UNL     1       2.890  14.686  28.355  1.00  0.00     0.045 C 
BRANCH   5   7
HETATM    7  C   UNL     1       1.127  13.164  29.334  1.00  0.00     0.211 C 
BRANCH   7   8
HETATM    8  O   UNL     1       0.837  14.427  29.939  1.00  0.00    -0.349 OA
BRANCH   8   9
HETATM    9  C   UNL     1      -0.403  14.956  29.715  1.00  0.00     0.068 A 
HETATM   10  C   UNL     1      -1.076  14.420  28.614  1.00  0.00     0.037 A 
HETATM   11  C   UNL     1      -2.352  14.869  28.271  1.00  0.00     0.003 A 
HETATM   12  C   UNL     1      -2.965  15.862  29.030  1.00  0.00     0.000 A 
HETATM   13  C   UNL     1      -2.299  16.404  30.129  1.00  0.00     0.003 A 
HETATM   14  C   UNL     1      -1.021  15.954  30.471  1.00  0.00     0.037 A 
ENDBRANCH   8   9
ENDBRANCH   7   8
ENDBRANCH   5   7
ENDBRANCH   3   5
ENDBRANCH   1   3
BRANCH   1  15
HETATM   15  C   UNL     1       2.871  10.016  27.488  1.00  0.00     0.184 C 
BRANCH  15  16
HETATM   16  O   UNL     1       3.089   9.518  28.815  1.00  0.00    -0.389 OA
HETATM   17  H   UNL     1       3.326   8.578  28.675  1.00  0.00     0.210 HD
ENDBRANCH  15  16
BRANCH  15  18
HETATM   18  C   UNL     1       3.272   9.000  26.437  1.00  0.00    -0.027 A 
HETATM   19  C   UNL     1       4.485   9.156  25.745  1.00  0.00     0.012 A 
HETATM   20  C   UNL     1       4.881   8.226  24.781  1.00  0.00     0.037 A 
HETATM   21  C   UNL     1       4.067   7.136  24.501  1.00  0.00     0.065 A 
HETATM   22  C   UNL     1       2.861   6.960  25.167  1.00  0.00     0.037 A 
HETATM   23  C   UNL     1       2.466   7.890  26.133  1.00  0.00     0.012 A 
BRANCH  21  24
HETATM   24  O   UNL     1       4.492   6.253  23.553  1.00  0.00    -0.361 OA
HETATM   25  H   UNL     1       5.375   6.524  23.257  1.00  0.00     0.217 HD
ENDBRANCH  21  24
ENDBRANCH  15  18
ENDBRANCH   1  15
TORSDOF 9
ENDMDL
MODEL 4
REMARK VINA RESULT:      -9.1      1.946      8.641
REMARK  9 active torsions:
REMARK  status: ('A' for Active; 'I' for Inactive)
REMARK    1  A    between atoms: C_2  and  C_3 
REMARK    2  A    between atoms: C_2  and  N_11 
REMARK    3  A    between atoms: C_3  and  O_4 
REMARK    4  A    between atoms: O_4  and  C_5 
REMARK    5  A    between atoms: N_11  and  C_12 
REMARK    6  A    between atoms: C_12  and  C_14 
REMARK    7  A    between atoms: C_14  and  O_15 
REMARK    8  A    between atoms: C_14  and  C_16 
REMARK    9  A    between atoms: C_19  and  O_20 
ROOT
HETATM    1  C   UNL     1       0.940  12.572  28.324  1.00  0.00     0.250 C 
HETATM    2  C   UNL     1      -0.511  12.485  27.822  1.00  0.00     0.045 C 
ENDROOT
BRANCH   1   3
HETATM    3  N   UNL     1       1.334  11.195  28.722  1.00  0.00     0.097 N 
HETATM    4  H   UNL     1       0.518  10.581  28.622  1.00  0.00     0.317 HD
BRANCH   3   5
HETATM    5  C   UNL     1       2.401  10.604  27.886  1.00  0.00     0.241 C 
HETATM    6  C   UNL     1       3.463  10.062  28.850  1.00  0.00     0.045 C 
BRANCH   5   7
HETATM    7  C   UNL     1       1.897   9.471  26.958  1.00  0.00     0.211 C 
BRANCH   7   8
HETATM    8  O   UNL     1       2.684   8.297  27.179  1.00  0.00    -0.349 OA
BRANCH   8   9
HETATM    9  C   UNL     1       2.940   7.504  26.095  1.00  0.00     0.068 A 
HETATM   10  C   UNL     1       1.959   7.543  25.100  1.00  0.00     0.037 A 
HETATM   11  C   UNL     1       2.093   6.782  23.938  1.00  0.00     0.003 A 
HETATM   12  C   UNL     1       3.213   5.973  23.764  1.00  0.00     0.000 A 
HETATM   13  C   UNL     1       4.195   5.927  24.753  1.00  0.00     0.003 A 
HETATM   14  C   UNL     1       4.059   6.690  25.917  1.00  0.00     0.037 A 
ENDBRANCH   8   9
ENDBRANCH   7   8
ENDBRANCH   5   7
ENDBRANCH   3   5
ENDBRANCH   1   3
BRANCH   1  15
HETATM   15  C   UNL     1       1.074  13.548  29.537  1.00  0.00     0.184 C 
BRANCH  15  16
HETATM   16  O   UNL     1      -0.147  14.286  29.674  1.00  0.00    -0.389 OA
HETATM   17  H   UNL     1       0.130  15.218  29.550  1.00  0.00     0.210 HD
ENDBRANCH  15  16
BRANCH  15  18
HETATM   18  C   UNL     1       2.279  14.466  29.466  1.00  0.00    -0.027 A 
HETATM   19  C   UNL     1       3.551  13.927  29.209  1.00  0.00     0.012 A 
HETATM   20  C   UNL     1       4.672  14.755  29.127  1.00  0.00     0.037 A 
HETATM   21  C   UNL     1       4.531  16.125  29.304  1.00  0.00     0.065 A 
HETATM   22  C   UNL     1       3.285  16.684  29.564  1.00  0.00     0.037 A 
HETATM   23  C   UNL     1       2.163  15.855  29.644  1.00  0.00     0.012 A 
BRANCH  21  24
HETATM   24  O   UNL     1       5.652  16.897  29.217  1.00  0.00    -0.361 OA
HETATM   25  H   UNL     1       6.184  16.579  28.470  1.00  0.00     0.217 HD
ENDBRANCH  21  24
ENDBRANCH  15  18
ENDBRANCH   1  15
TORSDOF 9
ENDMDL
MODEL 5
REMARK VINA RESULT:      -9.1      2.563      7.322
REMARK  9 active torsions:
REMARK  status: ('A' for Active; 'I' for Inactive)
REMARK    1  A    between atoms: C_2  and  C_3 
REMARK    2  A    between atoms: C_2  and  N_11 
REMARK    3  A    between atoms: C_3  and  O_4 
REMARK    4  A    between atoms: O_4  and  C_5 
REMARK    5  A    between atoms: N_11  and  C_12 
REMARK    6  A    between atoms: C_12  and  C_14 
REMARK    7  A    between atoms: C_14  and  O_15 
REMARK    8  A    between atoms: C_14  and  C_16 
REMARK    9  A    between atoms: C_19  and  O_20 
ROOT
HETATM    1  C   UNL     1       2.614  13.794  28.509  1.00  0.00     0.250 C 
HETATM    2  C   UNL     1       1.960  15.058  27.926  1.00  0.00     0.045 C 
ENDROOT
BRANCH   1   3
HETATM    3  N   UNL     1       1.550  13.076  29.262  1.00  0.00     0.097 N 
HETATM    4  H   UNL     1       0.720  13.677  29.306  1.00  0.00     0.317 HD
BRANCH   3   5
HETATM    5  C   UNL     1       1.114  11.810  28.636  1.00  0.00     0.241 C 
HETATM    6  C   UNL     1      -0.139  12.136  27.816  1.00  0.00     0.045 C 
BRANCH   5   7
HETATM    7  C   UNL     1       2.193  11.171  27.728  1.00  0.00     0.211 C 
BRANCH   7   8
HETATM    8  O   UNL     1       1.752   9.875  27.312  1.00  0.00    -0.349 OA
BRANCH   8   9
HETATM    9  C   UNL     1       2.615   9.135  26.554  1.00  0.00     0.068 A 
HETATM   10  C   UNL     1       2.104   7.909  26.119  1.00  0.00     0.037 A 
HETATM   11  C   UNL     1       2.879   7.053  25.335  1.00  0.00     0.003 A 
HETATM   12  C   UNL     1       4.175   7.418  24.982  1.00  0.00     0.000 A 
HETATM   13  C   UNL     1       4.692   8.639  25.414  1.00  0.00     0.003 A 
HETATM   14  C   UNL     1       3.916   9.495  26.199  1.00  0.00     0.037 A 
ENDBRANCH   8   9
ENDBRANCH   7   8
ENDBRANCH   5   7
ENDBRANCH   3   5
ENDBRANCH   1   3
BRANCH   1  15
HETATM   15  C   UNL     1       3.806  14.145  29.456  1.00  0.00     0.184 C 
BRANCH  15  16
HETATM   16  O   UNL     1       3.955  15.570  29.503  1.00  0.00    -0.389 OA
HETATM   17  H   UNL     1       3.793  15.852  28.578  1.00  0.00     0.210 HD
ENDBRANCH  15  16
BRANCH  15  18
HETATM   18  C   UNL     1       5.109  13.459  29.095  1.00  0.00    -0.027 A 
HETATM   19  C   UNL     1       5.083  12.222  28.428  1.00  0.00     0.012 A 
HETATM   20  C   UNL     1       6.270  11.577  28.075  1.00  0.00     0.037 A 
HETATM   21  C   UNL     1       7.490  12.162  28.387  1.00  0.00     0.065 A 
HETATM   22  C   UNL     1       7.545  13.382  29.049  1.00  0.00     0.037 A 
HETATM   23  C   UNL     1       6.356  14.028  29.401  1.00  0.00     0.012 A 
BRANCH  21  24
HETATM   24  O   UNL     1       8.625  11.498  28.024  1.00  0.00    -0.361 OA
HETATM   25  H   UNL     1       9.384  11.947  28.430  1.00  0.00     0.217 HD
ENDBRANCH  21  24
ENDBRANCH  15  18
ENDBRANCH   1  15
TORSDOF 9
ENDMDL
MODEL 6
REMARK VINA RESULT:      -9.1      2.339      8.143
REMARK  9 active torsions:
REMARK  status: ('A' for Active; 'I' for Inactive)
REMARK    1  A    between atoms: C_2  and  C_3 
REMARK    2  A    between atoms: C_2  and  N_11 
REMARK    3  A    between atoms: C_3  and  O_4 
REMARK    4  A    between atoms: O_4  and  C_5 
REMARK    5  A    between atoms: N_11  and  C_12 
REMARK    6  A    between atoms: C_12  and  C_14 
REMARK    7  A    between atoms: C_14  and  O_15 
REMARK    8  A    between atoms: C_14  and  C_16 
REMARK    9  A    between atoms: C_19  and  O_20 
ROOT
HETATM    1  C   UNL     1       2.340  14.027  28.149  1.00  0.00     0.250 C 
HETATM    2  C   UNL     1       0.935  14.593  28.415  1.00  0.00     0.045 C 
ENDROOT
BRANCH   1   3
HETATM    3  N   UNL     1       2.148  12.733  27.440  1.00  0.00     0.097 N 
HETATM    4  H   UNL     1       2.977  12.552  26.863  1.00  0.00     0.317 HD
BRANCH   3   5
HETATM    5  C   UNL     1       2.003  11.566  28.336  1.00  0.00     0.241 C 
HETATM    6  C   UNL     1       0.597  11.005  28.099  1.00  0.00     0.045 C 
BRANCH   5   7
HETATM    7  C   UNL     1       3.065  10.467  28.088  1.00  0.00     0.211 C 
BRANCH   7   8
HETATM    8  O   UNL     1       2.420   9.296  27.578  1.00  0.00    -0.349 OA
BRANCH   8   9
HETATM    9  C   UNL     1       3.045   8.631  26.561  1.00  0.00     0.068 A 
HETATM   10  C   UNL     1       4.272   9.178  26.174  1.00  0.00     0.037 A 
HETATM   11  C   UNL     1       5.018   8.599  25.147  1.00  0.00     0.003 A 
HETATM   12  C   UNL     1       4.539   7.465  24.497  1.00  0.00     0.000 A 
HETATM   13  C   UNL     1       3.315   6.915  24.875  1.00  0.00     0.003 A 
HETATM   14  C   UNL     1       2.569   7.496  25.903  1.00  0.00     0.037 A 
ENDBRANCH   8   9
ENDBRANCH   7   8
ENDBRANCH   5   7
ENDBRANCH   3   5
ENDBRANCH   1   3
BRANCH   1  15
HETATM   15  C   UNL     1       3.134  13.806  29.476  1.00  0.00     0.184 C 
BRANCH  15  16
HETATM   16  O   UNL     1       2.509  14.563  30.521  1.00  0.00    -0.389 OA
HETATM   17  H   UNL     1       3.249  14.779  31.126  1.00  0.00     0.210 HD
ENDBRANCH  15  16
BRANCH  15  18
HETATM   18  C   UNL     1       4.616  14.113  29.373  1.00  0.00    -0.027 A 
HETATM   19  C   UNL     1       5.079  15.408  29.657  1.00  0.00     0.012 A 
HETATM   20  C   UNL     1       6.440  15.711  29.580  1.00  0.00     0.037 A 
HETATM   21  C   UNL     1       7.346  14.723  29.218  1.00  0.00     0.065 A 
HETATM   22  C   UNL     1       6.914  13.434  28.928  1.00  0.00     0.037 A 
HETATM   23  C   UNL     1       5.552  13.132  29.006  1.00  0.00     0.012 A 
BRANCH  21  24
HETATM   24  O   UNL     1       8.666  15.061  29.154  1.00  0.00    -0.361 OA
HETATM   25  H   UNL     1       8.898  15.536  29.968  1.00  0.00     0.217 HD
ENDBRANCH  21  24
ENDBRANCH  15  18
ENDBRANCH   1  15
TORSDOF 9
ENDMDL
MODEL 7
REMARK VINA RESULT:      -8.6      1.829      8.503
REMARK  9 active torsions:
REMARK  status: ('A' for Active; 'I' for Inactive)
REMARK    1  A    between atoms: C_2  and  C_3 
REMARK    2  A    between atoms: C_2  and  N_11 
REMARK    3  A    between atoms: C_3  and  O_4 
REMARK    4  A    between atoms: O_4  and  C_5 
REMARK    5  A    between atoms: N_11  and  C_12 
REMARK    6  A    between atoms: C_12  and  C_14 
REMARK    7  A    between atoms: C_14  and  O_15 
REMARK    8  A    between atoms: C_14  and  C_16 
REMARK    9  A    between atoms: C_19  and  O_20 
ROOT
HETATM    1  C   UNL     1       4.031  12.330  28.562  1.00  0.00     0.250 C 
HETATM    2  C   UNL     1       5.452  11.955  28.107  1.00  0.00     0.045 C 
ENDROOT
BRANCH   1   3
HETATM    3  N   UNL     1       3.102  11.793  27.533  1.00  0.00     0.097 N 
HETATM    4  H   UNL     1       3.657  11.401  26.764  1.00  0.00     0.317 HD
BRANCH   3   5
HETATM    5  C   UNL     1       2.231  10.699  28.015  1.00  0.00     0.241 C 
HETATM    6  C   UNL     1       0.835  11.302  28.207  1.00  0.00     0.045 C 
BRANCH   5   7
HETATM    7  C   UNL     1       2.162   9.496  27.042  1.00  0.00     0.211 C 
BRANCH   7   8
HETATM    8  O   UNL     1       3.404   8.788  27.081  1.00  0.00    -0.349 OA
BRANCH   8   9
HETATM    9  C   UNL     1       3.762   8.092  25.959  1.00  0.00     0.068 A 
HETATM   10  C   UNL     1       2.842   7.119  25.560  1.00  0.00     0.037 A 
HETATM   11  C   UNL     1       3.081   6.335  24.430  1.00  0.00     0.003 A 
HETATM   12  C   UNL     1       4.247   6.520  23.691  1.00  0.00     0.000 A 
HETATM   13  C   UNL     1       5.170   7.487  24.085  1.00  0.00     0.003 A 
HETATM   14  C   UNL     1       4.930   8.272  25.217  1.00  0.00     0.037 A 
ENDBRANCH   8   9
ENDBRANCH   7   8
ENDBRANCH   5   7
ENDBRANCH   3   5
ENDBRANCH   1   3
BRANCH   1  15
HETATM   15  C   UNL     1       3.858  13.878  28.695  1.00  0.00     0.184 C 
BRANCH  15  16
HETATM   16  O   UNL     1       4.913  14.392  29.518  1.00  0.00    -0.389 OA
HETATM   17  H   UNL     1       5.028  13.704  30.206  1.00  0.00     0.210 HD
ENDBRANCH  15  16
BRANCH  15  18
HETATM   18  C   UNL     1       2.494  14.310  29.198  1.00  0.00    -0.027 A 
HETATM   19  C   UNL     1       1.602  14.952  28.324  1.00  0.00     0.012 A 
HETATM   20  C   UNL     1       0.336  15.348  28.762  1.00  0.00     0.037 A 
HETATM   21  C   UNL     1      -0.044  15.107  30.075  1.00  0.00     0.065 A 
HETATM   22  C   UNL     1       0.820  14.477  30.962  1.00  0.00     0.037 A 
HETATM   23  C   UNL     1       2.086  14.080  30.522  1.00  0.00     0.012 A 
BRANCH  21  24
HETATM   24  O   UNL     1      -1.289  15.510  30.461  1.00  0.00    -0.361 OA
HETATM   25  H   UNL     1      -1.912  14.787  30.287  1.00  0.00     0.217 HD
ENDBRANCH  21  24
ENDBRANCH  15  18
ENDBRANCH   1  15
TORSDOF 9
ENDMDL
MODEL 8
REMARK VINA RESULT:      -8.6      4.092      6.209
REMARK  9 active torsions:
REMARK  status: ('A' for Active; 'I' for Inactive)
REMARK    1  A    between atoms: C_2  and  C_3 
REMARK    2  A    between atoms: C_2  and  N_11 
REMARK    3  A    between atoms: C_3  and  O_4 
REMARK    4  A    between atoms: O_4  and  C_5 
REMARK    5  A    between atoms: N_11  and  C_12 
REMARK    6  A    between atoms: C_12  and  C_14 
REMARK    7  A    between atoms: C_14  and  O_15 
REMARK    8  A    between atoms: C_14  and  C_16 
REMARK    9  A    between atoms: C_19  and  O_20 
ROOT
HETATM    1  C   UNL     1       3.035  12.482  29.090  1.00  0.00     0.250 C 
HETATM    2  C   UNL     1       1.947  11.461  28.715  1.00  0.00     0.045 C 
ENDROOT
BRANCH   1   3
HETATM    3  N   UNL     1       2.392  13.822  29.047  1.00  0.00     0.097 N 
HETATM    4  H   UNL     1       1.488  13.734  28.568  1.00  0.00     0.317 HD
BRANCH   3   5
HETATM    5  C   UNL     1       2.102  14.398  30.378  1.00  0.00     0.241 C 
HETATM    6  C   UNL     1       2.105  15.921  30.205  1.00  0.00     0.045 C 
BRANCH   5   7
HETATM    7  C   UNL     1       0.747  13.931  30.966  1.00  0.00     0.211 C 
BRANCH   7   8
HETATM    8  O   UNL     1      -0.123  15.059  31.097  1.00  0.00    -0.349 OA
BRANCH   8   9
HETATM    9  C   UNL     1      -1.068  15.235  30.125  1.00  0.00     0.068 A 
HETATM   10  C   UNL     1      -1.955  16.289  30.360  1.00  0.00     0.037 A 
HETATM   11  C   UNL     1      -2.971  16.581  29.447  1.00  0.00     0.003 A 
HETATM   12  C   UNL     1      -3.105  15.817  28.292  1.00  0.00     0.000 A 
HETATM   13  C   UNL     1      -2.225  14.763  28.052  1.00  0.00     0.003 A 
HETATM   14  C   UNL     1      -1.209  14.471  28.966  1.00  0.00     0.037 A 
ENDBRANCH   8   9
ENDBRANCH   7   8
ENDBRANCH   5   7
ENDBRANCH   3   5
ENDBRANCH   1   3
BRANCH   1  15
HETATM   15  C   UNL     1       4.243  12.427  28.100  1.00  0.00     0.184 C 
BRANCH  15  16
HETATM   16  O   UNL     1       4.529  11.056  27.795  1.00  0.00    -0.389 OA
HETATM   17  H   UNL     1       3.982  10.875  27.003  1.00  0.00     0.210 HD
ENDBRANCH  15  16
BRANCH  15  18
HETATM   18  C   UNL     1       5.478  13.162  28.585  1.00  0.00    -0.027 A 
HETATM   19  C   UNL     1       5.357  14.467  29.091  1.00  0.00     0.012 A 
HETATM   20  C   UNL     1       6.478  15.159  29.554  1.00  0.00     0.037 A 
HETATM   21  C   UNL     1       7.726  14.552  29.514  1.00  0.00     0.065 A 
HETATM   22  C   UNL     1       7.875  13.264  29.015  1.00  0.00     0.037 A 
HETATM   23  C   UNL     1       6.752  12.572  28.552  1.00  0.00     0.012 A 
BRANCH  21  24
HETATM   24  O   UNL     1       8.794  15.263  29.975  1.00  0.00    -0.361 OA
HETATM   25  H   UNL     1       9.416  14.644  30.391  1.00  0.00     0.217 HD
ENDBRANCH  21  24
ENDBRANCH  15  18
ENDBRANCH   1  15
TORSDOF 9
ENDMDL
MODEL 9
REMARK VINA RESULT:      -8.6      2.329      8.904
REMARK  9 active torsions:
REMARK  status: ('A' for Active; 'I' for Inactive)
REMARK    1  A    between atoms: C_2  and  C_3 
REMARK    2  A    between atoms: C_2  and  N_11 
REMARK    3  A    between atoms: C_3  and  O_4 
REMARK    4  A    between atoms: O_4  and  C_5 
REMARK    5  A    between atoms: N_11  and  C_12 
REMARK    6  A    between atoms: C_12  and  C_14 
REMARK    7  A    between atoms: C_14  and  O_15 
REMARK    8  A    between atoms: C_14  and  C_16 
REMARK    9  A    between atoms: C_19  and  O_20 
ROOT
HETATM    1  C   UNL     1       2.890  14.401  29.692  1.00  0.00     0.250 C 
HETATM    2  C   UNL     1       2.759  14.823  28.219  1.00  0.00     0.045 C 
ENDROOT
BRANCH   1   3
HETATM    3  N   UNL     1       3.918  13.327  29.735  1.00  0.00     0.097 N 
HETATM    4  H   UNL     1       3.503  12.496  30.170  1.00  0.00     0.317 HD
BRANCH   3   5
HETATM    5  C   UNL     1       4.404  12.900  28.405  1.00  0.00     0.241 C 
HETATM    6  C   UNL     1       5.934  12.852  28.493  1.00  0.00     0.045 C 
BRANCH   5   7
HETATM    7  C   UNL     1       3.853  11.521  27.965  1.00  0.00     0.211 C 
BRANCH   7   8
HETATM    8  O   UNL     1       4.882  10.799  27.282  1.00  0.00    -0.349 OA
BRANCH   8   9
HETATM    9  C   UNL     1       4.504   9.689  26.579  1.00  0.00     0.068 A 
HETATM   10  C   UNL     1       3.340   9.073  27.045  1.00  0.00     0.037 A 
HETATM   11  C   UNL     1       2.840   7.929  26.419  1.00  0.00     0.003 A 
HETATM   12  C   UNL     1       3.506   7.393  25.321  1.00  0.00     0.000 A 
HETATM   13  C   UNL     1       4.670   8.001  24.852  1.00  0.00     0.003 A 
HETATM   14  C   UNL     1       5.170   9.146  25.479  1.00  0.00     0.037 A 
ENDBRANCH   8   9
ENDBRANCH   7   8
ENDBRANCH   5   7
ENDBRANCH   3   5
ENDBRANCH   1   3
BRANCH   1  15
HETATM   15  C   UNL     1       1.534  13.878  30.265  1.00  0.00     0.184 C 
BRANCH  15  16
HETATM   16  O   UNL     1       1.066  12.803  29.440  1.00  0.00    -0.389 OA
HETATM   17  H   UNL     1       1.087  13.179  28.535  1.00  0.00     0.210 HD
ENDBRANCH  15  16
BRANCH  15  18
HETATM   18  C   UNL     1       0.477  14.951  30.438  1.00  0.00    -0.027 A 
HETATM   19  C   UNL     1       0.748  16.071  31.243  1.00  0.00     0.012 A 
HETATM   20  C   UNL     1      -0.206  17.078  31.407  1.00  0.00     0.037 A 
HETATM   21  C   UNL     1      -1.436  16.972  30.771  1.00  0.00     0.065 A 
HETATM   22  C   UNL     1      -1.731  15.873  29.973  1.00  0.00     0.037 A 
HETATM   23  C   UNL     1      -0.775  14.867  29.808  1.00  0.00     0.012 A 
BRANCH  21  24
HETATM   24  O   UNL     1      -2.338  17.977  30.959  1.00  0.00    -0.361 OA
HETATM   25  H   UNL     1      -1.853  18.815  31.018  1.00  0.00     0.217 HD
ENDBRANCH  21  24
ENDBRANCH  15  18
ENDBRANCH   1  15
TORSDOF 9
ENDMDL
