REMARK  5 active torsions:
REMARK  status: ('A' for Active; 'I' for Inactive)
REMARK       I    between atoms: N_1  and  C_2 
REMARK    1  A    between atoms: C_2  and  C_4 
REMARK    2  A    between atoms: N_7  and  C_8 
REMARK    3  A    between atoms: C_8  and  C_9 
REMARK    4  A    between atoms: C_9  and  C_10 
REMARK    5  A    between atoms: C_10  and  N_11 
ROOT
HETATM    1  N   UNL     1      -2.445   0.251   0.777  1.00  0.00    -0.345 N 
HETATM    2  C   UNL     1      -2.687  -1.081   0.348  1.00  0.00     0.052 A 
HETATM    3  C   UNL     1      -2.514  -2.178   1.217  1.00  0.00     0.031 A 
HETATM    4  C   UNL     1      -2.756  -3.492   0.804  1.00  0.00     0.002 A 
HETATM    5  C   UNL     1      -3.187  -3.745  -0.491  1.00  0.00     0.002 A 
HETATM    6  C   UNL     1      -3.382  -2.682  -1.367  1.00  0.00     0.021 A 
HETATM    7  C   UNL     1      -3.145  -1.359  -0.956  1.00  0.00     0.032 A 
HETATM    8  S   UNL     1      -3.391  -0.082  -2.176  1.00  0.00    -0.086 SA
HETATM    9  C   UNL     1      -3.519   1.365  -1.143  1.00  0.00     0.032 A 
HETATM   10  C   UNL     1      -4.104   2.505  -1.723  1.00  0.00     0.023 A 
HETATM   11  C   UNL     1      -4.246   3.680  -0.990  1.00  0.00     0.025 A 
HETATM   12  C   UNL     1      -3.814   3.712   0.328  1.00  0.00     0.036 A 
HETATM   13 CL   UNL     1      -4.015   5.147   1.256  1.00  0.00    -0.084 Cl
HETATM   14  C   UNL     1      -3.226   2.586   0.910  1.00  0.00     0.055 A 
HETATM   15  C   UNL     1      -3.038   1.395   0.183  1.00  0.00     0.053 A 
ENDROOT
BRANCH   1  16
HETATM   16  C   UNL     1      -1.325   0.468   1.721  1.00  0.00     0.131 C 
BRANCH  16  17
HETATM   17  C   UNL     1       0.041   0.064   1.141  1.00  0.00     0.050 C 
BRANCH  17  18
HETATM   18  C   UNL     1       0.451   0.935  -0.055  1.00  0.00     0.274 C 
BRANCH  18  19
HETATM   19  N   UNL     1       1.785   0.687  -0.626  1.00  0.00     0.088 N 
HETATM   20  C   UNL     1       1.910  -0.659  -1.197  1.00  0.00     0.273 C 
HETATM   21  C   UNL     1       3.226  -0.801  -1.965  1.00  0.00     0.044 C 
HETATM   22  C   UNL     1       4.448  -0.409  -1.127  1.00  0.00     0.081 C 
HETATM   23  C   UNL     1       4.218   0.936  -0.429  1.00  0.00     0.044 C 
HETATM   24  C   UNL     1       2.876   0.977   0.305  1.00  0.00     0.273 C 
BRANCH  22  25
HETATM   25  C   UNL     1       4.823  -1.491  -0.120  1.00  0.00     0.219 C 
HETATM   26  N   UNL     1       6.051  -1.338   0.456  1.00  0.00    -0.370 N 
HETATM   27  H   UNL     1       6.685  -0.588   0.221  1.00  0.00     0.159 HD
HETATM   28  H   UNL     1       6.345  -2.036   1.126  1.00  0.00     0.159 HD
HETATM   29  O   UNL     1       4.116  -2.445   0.181  1.00  0.00    -0.273 OA
ENDBRANCH  22  25
ENDBRANCH  18  19
ENDBRANCH  17  18
ENDBRANCH  16  17
ENDBRANCH   1  16
TORSDOF 5
