MODEL 1
REMARK VINA RESULT:     -11.6      0.000      0.000
REMARK  5 active torsions:
REMARK  status: ('A' for Active; 'I' for Inactive)
REMARK       I    between atoms: N_1  and  C_2 
REMARK    1  A    between atoms: C_2  and  C_4 
REMARK    2  A    between atoms: N_7  and  C_8 
REMARK    3  A    between atoms: C_8  and  C_9 
REMARK    4  A    between atoms: C_9  and  C_10 
REMARK    5  A    between atoms: C_10  and  N_11 
ROOT
HETATM    1  N   UNL     1       3.108  13.549  28.917  1.00  0.00    -0.345 N 
HETATM    2  C   UNL     1       2.151  14.322  29.626  1.00  0.00     0.052 A 
HETATM    3  C   UNL     1       0.889  13.797  29.971  1.00  0.00     0.031 A 
HETATM    4  C   UNL     1      -0.057  14.550  30.674  1.00  0.00     0.002 A 
HETATM    5  C   UNL     1       0.238  15.850  31.060  1.00  0.00     0.002 A 
HETATM    6  C   UNL     1       1.481  16.391  30.748  1.00  0.00     0.021 A 
HETATM    7  C   UNL     1       2.437  15.637  30.046  1.00  0.00     0.032 A 
HETATM    8  S   UNL     1       3.980  16.447  29.668  1.00  0.00    -0.086 SA
HETATM    9  C   UNL     1       5.026  15.050  29.304  1.00  0.00     0.032 A 
HETATM   10  C   UNL     1       6.414  15.273  29.344  1.00  0.00     0.023 A 
HETATM   11  C   UNL     1       7.306  14.239  29.074  1.00  0.00     0.025 A 
HETATM   12  C   UNL     1       6.811  12.978  28.776  1.00  0.00     0.036 A 
HETATM   13 CL   UNL     1       7.903  11.683  28.474  1.00  0.00    -0.084 Cl
HETATM   14  C   UNL     1       5.433  12.750  28.727  1.00  0.00     0.055 A 
HETATM   15  C   UNL     1       4.507  13.784  28.962  1.00  0.00     0.053 A 
ENDROOT
BRANCH   1  16
HETATM   16  C   UNL     1       2.600  12.617  27.885  1.00  0.00     0.131 C 
BRANCH  16  17
HETATM   17  C   UNL     1       2.095  11.286  28.468  1.00  0.00     0.050 C 
BRANCH  17  18
HETATM   18  C   UNL     1       3.097  10.140  28.266  1.00  0.00     0.274 C 
BRANCH  18  19
HETATM   19  N   UNL     1       3.250   9.632  26.893  1.00  0.00     0.088 N 
HETATM   20  C   UNL     1       2.199   8.676  26.527  1.00  0.00     0.273 C 
HETATM   21  C   UNL     1       2.268   8.339  25.036  1.00  0.00     0.044 C 
HETATM   22  C   UNL     1       3.659   7.869  24.598  1.00  0.00     0.081 C 
HETATM   23  C   UNL     1       4.743   8.816  25.125  1.00  0.00     0.044 C 
HETATM   24  C   UNL     1       4.583   9.091  26.621  1.00  0.00     0.273 C 
BRANCH  22  25
HETATM   25  C   UNL     1       3.937   6.430  25.020  1.00  0.00     0.219 C 
HETATM   26  N   UNL     1       3.791   5.503  24.029  1.00  0.00    -0.370 N 
HETATM   27  H   UNL     1       3.494   5.733  23.092  1.00  0.00     0.159 HD
HETATM   28  H   UNL     1       3.959   4.534  24.265  1.00  0.00     0.159 HD
HETATM   29  O   UNL     1       4.264   6.081  26.148  1.00  0.00    -0.273 OA
ENDBRANCH  22  25
ENDBRANCH  18  19
ENDBRANCH  17  18
ENDBRANCH  16  17
ENDBRANCH   1  16
TORSDOF 5
ENDMDL
MODEL 2
REMARK VINA RESULT:     -10.5      2.319      4.292
REMARK  5 active torsions:
REMARK  status: ('A' for Active; 'I' for Inactive)
REMARK       I    between atoms: N_1  and  C_2 
REMARK    1  A    between atoms: C_2  and  C_4 
REMARK    2  A    between atoms: N_7  and  C_8 
REMARK    3  A    between atoms: C_8  and  C_9 
REMARK    4  A    between atoms: C_9  and  C_10 
REMARK    5  A    between atoms: C_10  and  N_11 
ROOT
HETATM    1  N   UNL     1       2.654  12.518  28.847  1.00  0.00    -0.345 N 
HETATM    2  C   UNL     1       4.048  12.790  28.858  1.00  0.00     0.052 A 
HETATM    3  C   UNL     1       4.966  11.955  28.189  1.00  0.00     0.031 A 
HETATM    4  C   UNL     1       6.340  12.220  28.190  1.00  0.00     0.002 A 
HETATM    5  C   UNL     1       6.832  13.333  28.856  1.00  0.00     0.002 A 
HETATM    6  C   UNL     1       5.949  14.184  29.512  1.00  0.00     0.021 A 
HETATM    7  C   UNL     1       4.567  13.926  29.511  1.00  0.00     0.032 A 
HETATM    8  S   UNL     1       3.536  15.063  30.418  1.00  0.00    -0.086 SA
HETATM    9  C   UNL     1       1.933  14.706  29.726  1.00  0.00     0.032 A 
HETATM   10  C   UNL     1       0.933  15.677  29.916  1.00  0.00     0.023 A 
HETATM   11  C   UNL     1      -0.349  15.483  29.409  1.00  0.00     0.025 A 
HETATM   12  C   UNL     1      -0.629  14.323  28.700  1.00  0.00     0.036 A 
HETATM   13 CL   UNL     1      -2.199  14.087  28.039  1.00  0.00    -0.084 Cl
HETATM   14  C   UNL     1       0.357  13.351  28.512  1.00  0.00     0.055 A 
HETATM   15  C   UNL     1       1.652  13.504  29.043  1.00  0.00     0.053 A 
ENDROOT
BRANCH   1  16
HETATM   16  C   UNL     1       2.238  11.097  28.887  1.00  0.00     0.131 C 
BRANCH  16  17
HETATM   17  C   UNL     1       1.976  10.505  27.493  1.00  0.00     0.050 C 
BRANCH  17  18
HETATM   18  C   UNL     1       2.603   9.114  27.319  1.00  0.00     0.274 C 
BRANCH  18  19
HETATM   19  N   UNL     1       3.079   8.769  25.969  1.00  0.00     0.088 N 
HETATM   20  C   UNL     1       2.128   7.922  25.238  1.00  0.00     0.273 C 
HETATM   21  C   UNL     1       2.556   7.765  23.777  1.00  0.00     0.044 C 
HETATM   22  C   UNL     1       4.001   7.277  23.631  1.00  0.00     0.081 C 
HETATM   23  C   UNL     1       4.942   8.094  24.523  1.00  0.00     0.044 C 
HETATM   24  C   UNL     1       4.424   8.194  25.959  1.00  0.00     0.273 C 
BRANCH  22  25
HETATM   25  C   UNL     1       4.134   5.785  23.916  1.00  0.00     0.219 C 
HETATM   26  N   UNL     1       4.239   4.996  22.807  1.00  0.00    -0.370 N 
HETATM   27  H   UNL     1       4.204   5.356  21.864  1.00  0.00     0.159 HD
HETATM   28  H   UNL     1       4.323   3.998  22.948  1.00  0.00     0.159 HD
HETATM   29  O   UNL     1       4.145   5.283  25.033  1.00  0.00    -0.273 OA
ENDBRANCH  22  25
ENDBRANCH  18  19
ENDBRANCH  17  18
ENDBRANCH  16  17
ENDBRANCH   1  16
TORSDOF 5
ENDMDL
MODEL 3
REMARK VINA RESULT:     -10.3      1.435      1.618
REMARK  5 active torsions:
REMARK  status: ('A' for Active; 'I' for Inactive)
REMARK       I    between atoms: N_1  and  C_2 
REMARK    1  A    between atoms: C_2  and  C_4 
REMARK    2  A    between atoms: N_7  and  C_8 
REMARK    3  A    between atoms: C_8  and  C_9 
REMARK    4  A    between atoms: C_9  and  C_10 
REMARK    5  A    between atoms: C_10  and  N_11 
ROOT
HETATM    1  N   UNL     1       3.221  13.221  28.399  1.00  0.00    -0.345 N 
HETATM    2  C   UNL     1       1.835  13.530  28.450  1.00  0.00     0.052 A 
HETATM    3  C   UNL     1       0.855  12.517  28.468  1.00  0.00     0.031 A 
HETATM    4  C   UNL     1      -0.511  12.813  28.525  1.00  0.00     0.002 A 
HETATM    5  C   UNL     1      -0.934  14.134  28.573  1.00  0.00     0.002 A 
HETATM    6  C   UNL     1       0.010  15.155  28.572  1.00  0.00     0.021 A 
HETATM    7  C   UNL     1       1.384  14.864  28.521  1.00  0.00     0.032 A 
HETATM    8  S   UNL     1       2.500  16.254  28.485  1.00  0.00    -0.086 SA
HETATM    9  C   UNL     1       4.034  15.480  28.960  1.00  0.00     0.032 A 
HETATM   10  C   UNL     1       5.055  16.332  29.419  1.00  0.00     0.023 A 
HETATM   11  C   UNL     1       6.286  15.815  29.812  1.00  0.00     0.025 A 
HETATM   12  C   UNL     1       6.493  14.444  29.758  1.00  0.00     0.036 A 
HETATM   13 CL   UNL     1       7.998  13.789  30.274  1.00  0.00    -0.084 Cl
HETATM   14  C   UNL     1       5.487  13.592  29.298  1.00  0.00     0.055 A 
HETATM   15  C   UNL     1       4.244  14.089  28.861  1.00  0.00     0.053 A 
ENDROOT
BRANCH   1  16
HETATM   16  C   UNL     1       3.626  12.048  27.591  1.00  0.00     0.131 C 
BRANCH  16  17
HETATM   17  C   UNL     1       3.803  10.770  28.428  1.00  0.00     0.050 C 
BRANCH  17  18
HETATM   18  C   UNL     1       3.014   9.582  27.858  1.00  0.00     0.274 C 
BRANCH  18  19
HETATM   19  N   UNL     1       3.303   9.206  26.465  1.00  0.00     0.088 N 
HETATM   20  C   UNL     1       2.256   8.357  25.884  1.00  0.00     0.273 C 
HETATM   21  C   UNL     1       2.484   8.167  24.383  1.00  0.00     0.044 C 
HETATM   22  C   UNL     1       3.893   7.659  24.055  1.00  0.00     0.081 C 
HETATM   23  C   UNL     1       4.952   8.482  24.798  1.00  0.00     0.044 C 
HETATM   24  C   UNL     1       4.630   8.615  26.288  1.00  0.00     0.273 C 
BRANCH  22  25
HETATM   25  C   UNL     1       4.049   6.172  24.351  1.00  0.00     0.219 C 
HETATM   26  N   UNL     1       4.141   5.374  23.247  1.00  0.00    -0.370 N 
HETATM   27  H   UNL     1       4.081   5.725  22.302  1.00  0.00     0.159 HD
HETATM   28  H   UNL     1       4.239   4.378  23.395  1.00  0.00     0.159 HD
HETATM   29  O   UNL     1       4.090   5.679  25.472  1.00  0.00    -0.273 OA
ENDBRANCH  22  25
ENDBRANCH  18  19
ENDBRANCH  17  18
ENDBRANCH  16  17
ENDBRANCH   1  16
TORSDOF 5
ENDMDL
MODEL 4
REMARK VINA RESULT:     -10.1      4.705      8.870
REMARK  5 active torsions:
REMARK  status: ('A' for Active; 'I' for Inactive)
REMARK       I    between atoms: N_1  and  C_2 
REMARK    1  A    between atoms: C_2  and  C_4 
REMARK    2  A    between atoms: N_7  and  C_8 
REMARK    3  A    between atoms: C_8  and  C_9 
REMARK    4  A    between atoms: C_9  and  C_10 
REMARK    5  A    between atoms: C_10  and  N_11 
ROOT
HETATM    1  N   UNL     1       3.625  14.861  29.185  1.00  0.00    -0.345 N 
HETATM    2  C   UNL     1       4.290  13.678  28.769  1.00  0.00     0.052 A 
HETATM    3  C   UNL     1       5.687  13.533  28.897  1.00  0.00     0.031 A 
HETATM    4  C   UNL     1       6.349  12.369  28.496  1.00  0.00     0.002 A 
HETATM    5  C   UNL     1       5.628  11.310  27.961  1.00  0.00     0.002 A 
HETATM    6  C   UNL     1       4.247  11.416  27.836  1.00  0.00     0.021 A 
HETATM    7  C   UNL     1       3.576  12.582  28.242  1.00  0.00     0.032 A 
HETATM    8  S   UNL     1       1.810  12.620  27.998  1.00  0.00    -0.086 SA
HETATM    9  C   UNL     1       1.337  13.947  29.091  1.00  0.00     0.032 A 
HETATM   10  C   UNL     1      -0.019  14.008  29.459  1.00  0.00     0.023 A 
HETATM   11  C   UNL     1      -0.478  15.010  30.309  1.00  0.00     0.025 A 
HETATM   12  C   UNL     1       0.421  15.945  30.802  1.00  0.00     0.036 A 
HETATM   13 CL   UNL     1      -0.127  17.167  31.882  1.00  0.00    -0.084 Cl
HETATM   14  C   UNL     1       1.769  15.894  30.437  1.00  0.00     0.055 A 
HETATM   15  C   UNL     1       2.255  14.914  29.551  1.00  0.00     0.053 A 
ENDROOT
BRANCH   1  16
HETATM   16  C   UNL     1       4.332  16.146  28.980  1.00  0.00     0.131 C 
BRANCH  16  17
HETATM   17  C   UNL     1       5.031  16.661  30.250  1.00  0.00     0.050 C 
BRANCH  17  18
HETATM   18  C   UNL     1       6.537  16.873  30.045  1.00  0.00     0.274 C 
BRANCH  18  19
HETATM   19  N   UNL     1       7.406  16.597  31.201  1.00  0.00     0.088 N 
HETATM   20  C   UNL     1       7.974  17.820  31.781  1.00  0.00     0.273 C 
HETATM   21  C   UNL     1       8.689  17.512  33.098  1.00  0.00     0.044 C 
HETATM   22  C   UNL     1       9.730  16.395  32.962  1.00  0.00     0.081 C 
HETATM   23  C   UNL     1       9.139  15.191  32.220  1.00  0.00     0.044 C 
HETATM   24  C   UNL     1       8.444  15.605  30.922  1.00  0.00     0.273 C 
BRANCH  22  25
HETATM   25  C   UNL     1      11.007  16.882  32.286  1.00  0.00     0.219 C 
HETATM   26  N   UNL     1      11.323  18.187  32.528  1.00  0.00    -0.370 N 
HETATM   27  H   UNL     1      10.749  18.804  33.085  1.00  0.00     0.159 HD
HETATM   28  H   UNL     1      12.159  18.556  32.095  1.00  0.00     0.159 HD
HETATM   29  O   UNL     1      11.727  16.196  31.570  1.00  0.00    -0.273 OA
ENDBRANCH  22  25
ENDBRANCH  18  19
ENDBRANCH  17  18
ENDBRANCH  16  17
ENDBRANCH   1  16
TORSDOF 5
ENDMDL
MODEL 5
REMARK VINA RESULT:     -10.1      2.139      2.873
REMARK  5 active torsions:
REMARK  status: ('A' for Active; 'I' for Inactive)
REMARK       I    between atoms: N_1  and  C_2 
REMARK    1  A    between atoms: C_2  and  C_4 
REMARK    2  A    between atoms: N_7  and  C_8 
REMARK    3  A    between atoms: C_8  and  C_9 
REMARK    4  A    between atoms: C_9  and  C_10 
REMARK    5  A    between atoms: C_10  and  N_11 
ROOT
HETATM    1  N   UNL     1       4.395  12.823  28.701  1.00  0.00    -0.345 N 
HETATM    2  C   UNL     1       2.998  12.610  28.559  1.00  0.00     0.052 A 
HETATM    3  C   UNL     1       2.437  11.319  28.639  1.00  0.00     0.031 A 
HETATM    4  C   UNL     1       1.062  11.102  28.506  1.00  0.00     0.002 A 
HETATM    5  C   UNL     1       0.207  12.175  28.296  1.00  0.00     0.002 A 
HETATM    6  C   UNL     1       0.729  13.463  28.228  1.00  0.00     0.021 A 
HETATM    7  C   UNL     1       2.109  13.687  28.366  1.00  0.00     0.032 A 
HETATM    8  S   UNL     1       2.668  15.375  28.221  1.00  0.00    -0.086 SA
HETATM    9  C   UNL     1       4.282  15.271  28.971  1.00  0.00     0.032 A 
HETATM   10  C   UNL     1       4.862  16.483  29.389  1.00  0.00     0.023 A 
HETATM   11  C   UNL     1       6.120  16.497  29.985  1.00  0.00     0.025 A 
HETATM   12  C   UNL     1       6.793  15.299  30.175  1.00  0.00     0.036 A 
HETATM   13 CL   UNL     1       8.333  15.300  30.943  1.00  0.00    -0.084 Cl
HETATM   14  C   UNL     1       6.226  14.092  29.758  1.00  0.00     0.055 A 
HETATM   15  C   UNL     1       4.971  14.050  29.121  1.00  0.00     0.053 A 
ENDROOT
BRANCH   1  16
HETATM   16  C   UNL     1       5.300  11.794  28.140  1.00  0.00     0.131 C 
BRANCH  16  17
HETATM   17  C   UNL     1       4.656  10.975  27.008  1.00  0.00     0.050 C 
BRANCH  17  18
HETATM   18  C   UNL     1       5.604   9.909  26.443  1.00  0.00     0.274 C 
BRANCH  18  19
HETATM   19  N   UNL     1       4.998   8.625  26.053  1.00  0.00     0.088 N 
HETATM   20  C   UNL     1       5.193   8.321  24.631  1.00  0.00     0.273 C 
HETATM   21  C   UNL     1       4.742   6.893  24.316  1.00  0.00     0.044 C 
HETATM   22  C   UNL     1       3.309   6.608  24.780  1.00  0.00     0.081 C 
HETATM   23  C   UNL     1       3.105   7.075  26.225  1.00  0.00     0.044 C 
HETATM   24  C   UNL     1       3.591   8.510  26.437  1.00  0.00     0.273 C 
BRANCH  22  25
HETATM   25  C   UNL     1       2.271   7.229  23.852  1.00  0.00     0.219 C 
HETATM   26  N   UNL     1       2.088   8.572  24.013  1.00  0.00    -0.370 N 
HETATM   27  H   UNL     1       2.573   9.119  24.710  1.00  0.00     0.159 HD
HETATM   28  H   UNL     1       1.404   9.026  23.423  1.00  0.00     0.159 HD
HETATM   29  O   UNL     1       1.623   6.615  23.013  1.00  0.00    -0.273 OA
ENDBRANCH  22  25
ENDBRANCH  18  19
ENDBRANCH  17  18
ENDBRANCH  16  17
ENDBRANCH   1  16
TORSDOF 5
ENDMDL
MODEL 6
REMARK VINA RESULT:      -9.1      3.484      7.360
REMARK  5 active torsions:
REMARK  status: ('A' for Active; 'I' for Inactive)
REMARK       I    between atoms: N_1  and  C_2 
REMARK    1  A    between atoms: C_2  and  C_4 
REMARK    2  A    between atoms: N_7  and  C_8 
REMARK    3  A    between atoms: C_8  and  C_9 
REMARK    4  A    between atoms: C_9  and  C_10 
REMARK    5  A    between atoms: C_10  and  N_11 
ROOT
HETATM    1  N   UNL     1       3.653  11.296  27.942  1.00  0.00    -0.345 N 
HETATM    2  C   UNL     1       4.066  10.337  26.980  1.00  0.00     0.052 A 
HETATM    3  C   UNL     1       3.132   9.622  26.204  1.00  0.00     0.031 A 
HETATM    4  C   UNL     1       3.531   8.679  25.250  1.00  0.00     0.002 A 
HETATM    5  C   UNL     1       4.881   8.432  25.041  1.00  0.00     0.002 A 
HETATM    6  C   UNL     1       5.827   9.133  25.781  1.00  0.00     0.021 A 
HETATM    7  C   UNL     1       5.432  10.085  26.737  1.00  0.00     0.032 A 
HETATM    8  S   UNL     1       6.732  10.893  27.652  1.00  0.00    -0.086 SA
HETATM    9  C   UNL     1       5.870  12.315  28.296  1.00  0.00     0.032 A 
HETATM   10  C   UNL     1       6.665  13.386  28.742  1.00  0.00     0.023 A 
HETATM   11  C   UNL     1       6.078  14.537  29.259  1.00  0.00     0.025 A 
HETATM   12  C   UNL     1       4.695  14.624  29.319  1.00  0.00     0.036 A 
HETATM   13 CL   UNL     1       3.956  16.055  29.924  1.00  0.00    -0.084 Cl
HETATM   14  C   UNL     1       3.898  13.562  28.884  1.00  0.00     0.055 A 
HETATM   15  C   UNL     1       4.464  12.372  28.388  1.00  0.00     0.053 A 
ENDROOT
BRANCH   1  16
HETATM   16  C   UNL     1       2.413  11.009  28.699  1.00  0.00     0.131 C 
BRANCH  16  17
HETATM   17  C   UNL     1       1.134  11.250  27.880  1.00  0.00     0.050 C 
BRANCH  17  18
HETATM   18  C   UNL     1       0.089  12.067  28.652  1.00  0.00     0.274 C 
BRANCH  18  19
HETATM   19  N   UNL     1       0.514  13.387  29.145  1.00  0.00     0.088 N 
HETATM   20  C   UNL     1       0.399  13.506  30.603  1.00  0.00     0.273 C 
HETATM   21  C   UNL     1       1.048  14.803  31.093  1.00  0.00     0.044 C 
HETATM   22  C   UNL     1       0.519  16.044  30.365  1.00  0.00     0.081 C 
HETATM   23  C   UNL     1       0.519  15.823  28.848  1.00  0.00     0.044 C 
HETATM   24  C   UNL     1      -0.147  14.500  28.463  1.00  0.00     0.273 C 
BRANCH  22  25
HETATM   25  C   UNL     1      -0.865  16.452  30.859  1.00  0.00     0.219 C 
HETATM   26  N   UNL     1      -0.876  17.106  32.057  1.00  0.00    -0.370 N 
HETATM   27  H   UNL     1      -0.044  17.287  32.599  1.00  0.00     0.159 HD
HETATM   28  H   UNL     1      -1.773  17.391  32.427  1.00  0.00     0.159 HD
HETATM   29  O   UNL     1      -1.914  16.231  30.268  1.00  0.00    -0.273 OA
ENDBRANCH  22  25
ENDBRANCH  18  19
ENDBRANCH  17  18
ENDBRANCH  16  17
ENDBRANCH   1  16
TORSDOF 5
ENDMDL
MODEL 7
REMARK VINA RESULT:      -8.9      4.652      8.503
REMARK  5 active torsions:
REMARK  status: ('A' for Active; 'I' for Inactive)
REMARK       I    between atoms: N_1  and  C_2 
REMARK    1  A    between atoms: C_2  and  C_4 
REMARK    2  A    between atoms: N_7  and  C_8 
REMARK    3  A    between atoms: C_8  and  C_9 
REMARK    4  A    between atoms: C_9  and  C_10 
REMARK    5  A    between atoms: C_10  and  N_11 
ROOT
HETATM    1  N   UNL     1       4.964  13.410  28.686  1.00  0.00    -0.345 N 
HETATM    2  C   UNL     1       4.225  14.557  29.080  1.00  0.00     0.052 A 
HETATM    3  C   UNL     1       4.780  15.851  29.012  1.00  0.00     0.031 A 
HETATM    4  C   UNL     1       4.057  16.986  29.392  1.00  0.00     0.002 A 
HETATM    5  C   UNL     1       2.750  16.858  29.843  1.00  0.00     0.002 A 
HETATM    6  C   UNL     1       2.169  15.595  29.906  1.00  0.00     0.021 A 
HETATM    7  C   UNL     1       2.890  14.452  29.521  1.00  0.00     0.032 A 
HETATM    8  S   UNL     1       2.056  12.884  29.682  1.00  0.00    -0.086 SA
HETATM    9  C   UNL     1       3.055  11.849  28.629  1.00  0.00     0.032 A 
HETATM   10  C   UNL     1       2.478  10.641  28.200  1.00  0.00     0.023 A 
HETATM   11  C   UNL     1       3.186   9.771  27.374  1.00  0.00     0.025 A 
HETATM   12  C   UNL     1       4.467  10.115  26.968  1.00  0.00     0.036 A 
HETATM   13 CL   UNL     1       5.339   9.066  25.919  1.00  0.00    -0.084 Cl
HETATM   14  C   UNL     1       5.050  11.311  27.395  1.00  0.00     0.055 A 
HETATM   15  C   UNL     1       4.372  12.194  28.257  1.00  0.00     0.053 A 
ENDROOT
BRANCH   1  16
HETATM   16  C   UNL     1       6.415  13.402  28.983  1.00  0.00     0.131 C 
BRANCH  16  17
HETATM   17  C   UNL     1       6.745  13.904  30.399  1.00  0.00     0.050 C 
BRANCH  17  18
HETATM   18  C   UNL     1       8.023  14.754  30.437  1.00  0.00     0.274 C 
BRANCH  18  19
HETATM   19  N   UNL     1       8.243  15.561  31.648  1.00  0.00     0.088 N 
HETATM   20  C   UNL     1       7.970  16.986  31.430  1.00  0.00     0.273 C 
HETATM   21  C   UNL     1       8.001  17.752  32.755  1.00  0.00     0.044 C 
HETATM   22  C   UNL     1       9.295  17.522  33.544  1.00  0.00     0.081 C 
HETATM   23  C   UNL     1       9.623  16.027  33.623  1.00  0.00     0.044 C 
HETATM   24  C   UNL     1       9.561  15.354  32.250  1.00  0.00     0.273 C 
BRANCH  22  25
HETATM   25  C   UNL     1      10.466  18.309  32.966  1.00  0.00     0.219 C 
HETATM   26  N   UNL     1      10.148  19.552  32.502  1.00  0.00    -0.370 N 
HETATM   27  H   UNL     1       9.209  19.924  32.507  1.00  0.00     0.159 HD
HETATM   28  H   UNL     1      10.893  20.109  32.103  1.00  0.00     0.159 HD
HETATM   29  O   UNL     1      11.619  17.902  32.897  1.00  0.00    -0.273 OA
ENDBRANCH  22  25
ENDBRANCH  18  19
ENDBRANCH  17  18
ENDBRANCH  16  17
ENDBRANCH   1  16
TORSDOF 5
ENDMDL
